ATOMS
         C    7.558905    7.558905    7.558905
         H    8.755769    8.755769    8.755769
         H    6.362040    6.362040    8.755769
         H    8.755769    6.362040    6.362040
         H    6.362040    8.755769    6.362040
BEGIN_BLOCK_DATAGRID_3D
units: coords = b, function = 1/hbar/H*b^-2
BEGIN_DATAGRID_3D_function
      9      9      9
0.0 0.0 0.0
   15.117809    0.000000    0.000000
    0.000000   15.117809    0.000000
    0.000000    0.000000   15.117809
        0.000000000000000
        0.000000000000000
        0.000000000000000
        0.000000000000000
        0.000000000000000
        0.000000000000000
        0.000000000000000
        0.000000000000000
        0.000000000000000
        0.000000000000000
        0.000000000000000
        0.000000000000000
        0.000000000000000
        0.000000000000000
        0.000000000000000
        0.000000000000000
        0.000000000000000
        0.000000000000000
        0.000000000000000
        0.000000000000000
        0.000000000000000
        0.000000000000000
        0.000000000000000
        0.000000000000000
        0.000000000000000
        0.000000000000000
        0.000000000000000
        0.000000000000000
        0.000000000000000
        0.000000000000000
        0.000000000000000
       -0.000000000019207
        0.000000000001610
        0.000000000000000
        0.000000000000000
        0.000000000000000
        0.000000000000000
        0.000000000000000
        0.000000000000000
        0.000000000001691
       -0.000000000058255
        0.000000000001610
        0.000000000000000
        0.000000000000000
        0.000000000000000
        0.000000000000000
        0.000000000000000
        0.000000000000000
        0.000000000001691
       -0.000000000020155
        0.000000000000000
        0.000000000000000
        0.000000000000000
        0.000000000000000
        0.000000000000000
        0.000000000000000
        0.000000000000000
        0.000000000000000
        0.000000000000000
        0.000000000000000
        0.000000000000000
        0.000000000000000
        0.000000000000000
        0.000000000000000
        0.000000000000000
        0.000000000000000
        0.000000000000000
        0.000000000000000
        0.000000000000000
        0.000000000000000
        0.000000000000000
        0.000000000000000
        0.000000000000000
        0.000000000000000
        0.000000000000000
        0.000000000000000
        0.000000000000000
        0.000000000000000
        0.000000000000000
        0.000000000000000
        0.000000000000000
        0.000000000000000
        0.000000000000000
        0.000000000000000
        0.000000000000000
        0.000000000000000
        0.000000000000000
        0.000000000000000
        0.000000000000000
        0.000000000000000
        0.000000000000000
        0.000000000000000
        0.000000000000000
        0.000000000000000
       -0.000000000037090
        0.000000000035874
        0.000000000000000
        0.000000000000000
        0.000000000000000
        0.000000000000000
        0.000000000000000
        0.000000000000000
       -0.000000000069299
       -0.000000000036681
        0.000000000031490
        0.000000000037509
        0.000000000000000
        0.000000000000000
        0.000000000000000
        0.000000000000000
       -0.000000000043691
       -0.000000000091302
        0.000000000052430
       -0.000000000056958
        0.000000000056738
       -0.000000000000253
        0.000000000000000
        0.000000000000000
       -0.000000000000070
       -0.000000000070332
        0.000000000037514
       -0.000000000041420
        0.000000000046770
       -0.000000000068900
       -0.000000000000253
        0.000000000000000
        0.000000000000000
       -0.000000000000070
        0.000000000055870
       -0.000000000064148
        0.000000000046997
       -0.000000000091506
       -0.000000000041473
        0.000000000000000
        0.000000000000000
        0.000000000000000
        0.000000000000000
        0.000000000035721
        0.000000000034114
       -0.000000000042486
       -0.000000000066377
        0.000000000000000
        0.000000000000000
        0.000000000000000
        0.000000000000000
        0.000000000000000
        0.000000000000000
        0.000000000033870
       -0.000000000038941
        0.000000000000000
        0.000000000000000
        0.000000000000000
        0.000000000000000
        0.000000000000000
        0.000000000000000
        0.000000000000000
        0.000000000000000
        0.000000000000000
        0.000000000000000
        0.000000000000000
        0.000000000000000
        0.000000000000000
        0.000000000000000
        0.000000000000000
        0.000000000000000
        0.000000000000000
        0.000000000000000
        0.000000000000000
        0.000000000000000
        0.000000000000000
        0.000000000000000
        0.000000000000000
        0.000000000000000
        0.000000000000000
       -0.000000000098985
        0.000000000023859
       -0.000000000018450
        0.000000000062954
        0.000000000000000
        0.000000000000000
        0.000000000000000
        0.000000000000000
       -0.000000000132136
        0.000000000021675
        0.000000000193633
       -0.000000000352130
       -0.000000000059085
        0.000000000016409
        0.000000000000000
        0.000000000000000
       -0.000000000017079
       -0.000000000074130
        0.000000000843886
       -0.000000000514317
       -0.000000001481120
       -0.000000000240226
        0.000000000017074
        0.000000000000000
        0.000000000000000
       -0.000000000032165
        0.000000000201449
       -0.000000000549281
       -0.000000001431504
       -0.000000000557272
        0.000000000217354
       -0.000000000030962
        0.000000000000000
        0.000000000000000
        0.000000000016054
       -0.000000000257131
       -0.000000001536487
       -0.000000000547289
        0.000000000839247
       -0.000000000071954
       -0.000000000014977
        0.000000000000000
        0.000000000000000
        0.000000000014494
       -0.000000000051209
       -0.000000000397488
        0.000000000202106
        0.000000000019489
       -0.000000000121964
        0.000000000000000
        0.000000000000000
        0.000000000000000
        0.000000000000000
        0.000000000059110
       -0.000000000014812
        0.000000000017468
       -0.000000000095649
        0.000000000000000
        0.000000000000000
        0.000000000000000
        0.000000000000000
        0.000000000000000
        0.000000000000000
        0.000000000000000
        0.000000000000000
        0.000000000000000
        0.000000000000000
        0.000000000000000
        0.000000000000000
        0.000000000000000
        0.000000000000000
        0.000000000000000
        0.000000000000000
       -0.000000000048890
        0.000000000033265
        0.000000000000000
        0.000000000000000
        0.000000000000000
        0.000000000000000
        0.000000000000000
       -0.000000000058573
       -0.000000000183340
       -0.000000000501871
        0.000000000283627
        0.000000000263385
       -0.000000000019580
        0.000000000000000
        0.000000000000000
        0.000000000015429
       -0.000000000325643
        0.000000004248284
        0.000000007911130
       -0.000000005220955
       -0.000000004874468
        0.000000000322237
        0.000000000000000
        0.000000000000000
       -0.000000000294713
        0.000000003770637
        0.000000013621121
       -0.000000022650847
       -0.000000043454292
       -0.000000002701926
        0.000000000209223
        0.000000000002271
        0.000000000002352
       -0.000000000610497
        0.000000008257659
       -0.000000023057394
       -0.000000055234909
       -0.000000024018879
        0.000000008270450
       -0.000000000602429
        0.000000000002271
        0.000000000002352
        0.000000000201269
       -0.000000002760904
       -0.000000042562634
       -0.000000021444882
        0.000000013831053
        0.000000003770965
       -0.000000000295901
        0.000000000000000
        0.000000000000000
        0.000000000323863
       -0.000000004911320
       -0.000000005548334
        0.000000007988481
        0.000000004272808
       -0.000000000328921
        0.000000000018220
        0.000000000000000
        0.000000000000000
       -0.000000000021586
        0.000000000266808
        0.000000000278527
       -0.000000000507204
       -0.000000000188274
       -0.000000000055245
        0.000000000000000
        0.000000000000000
        0.000000000000000
        0.000000000000000
        0.000000000000000
        0.000000000035317
       -0.000000000048471
        0.000000000000000
        0.000000000000000
        0.000000000000000
        0.000000000000000
        0.000000000000000
        0.000000000000000
        0.000000000000000
       -0.000000000019182
       -0.000000000002830
        0.000000000018762
        0.000000000000000
        0.000000000000000
        0.000000000000000
        0.000000000000000
        0.000000000009467
       -0.000000000079967
       -0.000000000966587
        0.000000000029977
        0.000000000972387
        0.000000000086312
       -0.000000000007586
        0.000000000000000
        0.000000000000000
       -0.000000000129005
        0.000000001775370
        0.000000018756783
       -0.000000000591329
       -0.000000018851484
       -0.000000001785428
        0.000000000135287
        0.000000000000000
        0.000000000004458
       -0.000000000944295
        0.000000016027188
        0.000000078053875
       -0.000000002290485
       -0.000000079377773
       -0.000000016022805
        0.000000000953172
       -0.000000000003521
        0.000000000000000
        0.000000000000000
       -0.000000000000000
        0.000000000000000
        0.000000000000000
       -0.000000000000000
        0.000000000000000
        0.000000000000000
        0.000000000000000
       -0.000000000004458
        0.000000000944295
       -0.000000016027188
       -0.000000078053875
        0.000000002290485
        0.000000079377773
        0.000000016022805
       -0.000000000953172
        0.000000000003521
        0.000000000000000
        0.000000000129005
       -0.000000001775370
       -0.000000018756783
        0.000000000591329
        0.000000018851484
        0.000000001785428
       -0.000000000135287
        0.000000000000000
        0.000000000000000
       -0.000000000009467
        0.000000000079967
        0.000000000966587
       -0.000000000029977
       -0.000000000972387
       -0.000000000086312
        0.000000000007586
        0.000000000000000
        0.000000000000000
        0.000000000000000
        0.000000000000000
        0.000000000019182
        0.000000000002830
       -0.000000000018762
        0.000000000000000
        0.000000000000000
        0.000000000000000
        0.000000000000000
        0.000000000000000
        0.000000000000000
       -0.000000000035317
        0.000000000048471
        0.000000000000000
        0.000000000000000
        0.000000000000000
        0.000000000000000
        0.000000000000000
        0.000000000021586
       -0.000000000266808
       -0.000000000278527
        0.000000000507204
        0.000000000188274
        0.000000000055245
        0.000000000000000
        0.000000000000000
        0.000000000000000
       -0.000000000323863
        0.000000004911320
        0.000000005548334
       -0.000000007988481
       -0.000000004272808
        0.000000000328921
       -0.000000000018220
        0.000000000000000
       -0.000000000002352
       -0.000000000201269
        0.000000002760904
        0.000000042562634
        0.000000021444882
       -0.000000013831053
       -0.000000003770965
        0.000000000295901
        0.000000000000000
       -0.000000000002352
        0.000000000610497
       -0.000000008257659
        0.000000023057394
        0.000000055234909
        0.000000024018879
       -0.000000008270450
        0.000000000602429
       -0.000000000002271
        0.000000000000000
        0.000000000294713
       -0.000000003770637
       -0.000000013621121
        0.000000022650847
        0.000000043454292
        0.000000002701926
       -0.000000000209223
       -0.000000000002271
        0.000000000000000
       -0.000000000015429
        0.000000000325643
       -0.000000004248284
       -0.000000007911130
        0.000000005220955
        0.000000004874468
       -0.000000000322237
        0.000000000000000
        0.000000000000000
        0.000000000000000
        0.000000000058573
        0.000000000183340
        0.000000000501871
       -0.000000000283627
       -0.000000000263385
        0.000000000019580
        0.000000000000000
        0.000000000000000
        0.000000000000000
        0.000000000000000
        0.000000000000000
        0.000000000048890
       -0.000000000033265
        0.000000000000000
        0.000000000000000
        0.000000000000000
        0.000000000000000
        0.000000000000000
        0.000000000000000
        0.000000000000000
        0.000000000000000
        0.000000000000000
        0.000000000000000
        0.000000000000000
        0.000000000000000
        0.000000000000000
        0.000000000000000
       -0.000000000059110
        0.000000000014812
       -0.000000000017468
        0.000000000095649
        0.000000000000000
        0.000000000000000
        0.000000000000000
        0.000000000000000
       -0.000000000014494
        0.000000000051209
        0.000000000397488
       -0.000000000202106
       -0.000000000019489
        0.000000000121964
        0.000000000000000
        0.000000000000000
        0.000000000000000
       -0.000000000016054
        0.000000000257131
        0.000000001536487
        0.000000000547289
       -0.000000000839247
        0.000000000071954
        0.000000000014977
        0.000000000000000
        0.000000000000000
        0.000000000032165
       -0.000000000201449
        0.000000000549281
        0.000000001431504
        0.000000000557272
       -0.000000000217354
        0.000000000030962
        0.000000000000000
        0.000000000000000
        0.000000000017079
        0.000000000074130
       -0.000000000843886
        0.000000000514317
        0.000000001481120
        0.000000000240226
       -0.000000000017074
        0.000000000000000
        0.000000000000000
        0.000000000000000
        0.000000000132136
       -0.000000000021675
       -0.000000000193633
        0.000000000352130
        0.000000000059085
       -0.000000000016409
        0.000000000000000
        0.000000000000000
        0.000000000000000
        0.000000000000000
        0.000000000098985
       -0.000000000023859
        0.000000000018450
       -0.000000000062954
        0.000000000000000
        0.000000000000000
        0.000000000000000
        0.000000000000000
        0.000000000000000
        0.000000000000000
        0.000000000000000
        0.000000000000000
        0.000000000000000
        0.000000000000000
        0.000000000000000
        0.000000000000000
        0.000000000000000
        0.000000000000000
        0.000000000000000
        0.000000000000000
        0.000000000000000
        0.000000000000000
        0.000000000000000
        0.000000000000000
        0.000000000000000
        0.000000000000000
        0.000000000000000
       -0.000000000033870
        0.000000000038941
        0.000000000000000
        0.000000000000000
        0.000000000000000
        0.000000000000000
        0.000000000000000
        0.000000000000000
       -0.000000000035721
       -0.000000000034114
        0.000000000042486
        0.000000000066377
        0.000000000000000
        0.000000000000000
        0.000000000000000
        0.000000000000000
        0.000000000000070
       -0.000000000055870
        0.000000000064148
       -0.000000000046997
        0.000000000091506
        0.000000000041473
        0.000000000000000
        0.000000000000000
        0.000000000000000
        0.000000000000070
        0.000000000070332
       -0.000000000037514
        0.000000000041420
       -0.000000000046770
        0.000000000068900
        0.000000000000253
        0.000000000000000
        0.000000000000000
        0.000000000000000
        0.000000000043691
        0.000000000091302
       -0.000000000052430
        0.000000000056958
       -0.000000000056738
        0.000000000000253
        0.000000000000000
        0.000000000000000
        0.000000000000000
        0.000000000000000
        0.000000000069299
        0.000000000036681
       -0.000000000031490
       -0.000000000037509
        0.000000000000000
        0.000000000000000
        0.000000000000000
        0.000000000000000
        0.000000000000000
        0.000000000000000
        0.000000000037090
       -0.000000000035874
        0.000000000000000
        0.000000000000000
        0.000000000000000
        0.000000000000000
        0.000000000000000
        0.000000000000000
        0.000000000000000
        0.000000000000000
        0.000000000000000
        0.000000000000000
        0.000000000000000
        0.000000000000000
        0.000000000000000
        0.000000000000000
        0.000000000000000
        0.000000000000000
        0.000000000000000
        0.000000000000000
        0.000000000000000
        0.000000000000000
        0.000000000000000
        0.000000000000000
        0.000000000000000
        0.000000000000000
        0.000000000000000
        0.000000000000000
        0.000000000000000
        0.000000000000000
        0.000000000000000
        0.000000000000000
        0.000000000000000
        0.000000000000000
        0.000000000000000
        0.000000000000000
        0.000000000000000
        0.000000000000000
        0.000000000000000
        0.000000000000000
        0.000000000000000
        0.000000000000000
        0.000000000000000
        0.000000000000000
       -0.000000000001691
        0.000000000020155
        0.000000000000000
        0.000000000000000
        0.000000000000000
        0.000000000000000
        0.000000000000000
        0.000000000000000
        0.000000000000000
       -0.000000000001691
        0.000000000058255
       -0.000000000001610
        0.000000000000000
        0.000000000000000
        0.000000000000000
        0.000000000000000
        0.000000000000000
        0.000000000000000
        0.000000000000000
        0.000000000019207
       -0.000000000001610
        0.000000000000000
        0.000000000000000
        0.000000000000000
        0.000000000000000
        0.000000000000000
        0.000000000000000
        0.000000000000000
        0.000000000000000
        0.000000000000000
        0.000000000000000
        0.000000000000000
        0.000000000000000
        0.000000000000000
        0.000000000000000
        0.000000000000000
        0.000000000000000
        0.000000000000000
        0.000000000000000
        0.000000000000000
        0.000000000000000
        0.000000000000000
        0.000000000000000
        0.000000000000000
        0.000000000000000
        0.000000000000000
        0.000000000000000
        0.000000000000000
        0.000000000000000
        0.000000000000000
        0.000000000000000
END_DATAGRID_3D
END_BLOCK_DATAGRID_3D
