ATOMS
         C    7.558905    7.558905    7.558905
         H    8.755769    8.755769    8.755769
         H    6.362040    6.362040    8.755769
         H    8.755769    6.362040    6.362040
         H    6.362040    8.755769    6.362040
BEGIN_BLOCK_DATAGRID_3D
units: coords = b, function = sqrt(b^-3)
BEGIN_DATAGRID_3D_function
      9      9      9
0.0 0.0 0.0
   15.117809    0.000000    0.000000
    0.000000   15.117809    0.000000
    0.000000    0.000000   15.117809
        0.000000000000000
        0.000000000000000
        0.000000000000000
        0.000000000000000
        0.000000000000000
        0.000000000000000
        0.000000000000000
        0.000000000000000
        0.000000000000000
        0.000000000000000
        0.000000000000000
        0.000000000000000
        0.000000000000000
        0.000000000000000
        0.000000000000000
        0.000000000000000
        0.000000000000000
        0.000000000000000
        0.000000000000000
        0.000000000000000
        0.000000000000000
        0.000000000000000
        0.000000000000000
        0.000000000000000
        0.000000000000000
        0.000000000000000
        0.000000000000000
        0.000000000000000
        0.000000000000000
        0.000000000000000
        0.000000000000000
       -0.000144951049578
        0.000054809728121
        0.000000000000000
        0.000000000000000
        0.000000000000000
        0.000000000000000
        0.000000000000000
        0.000000000000000
       -0.000320949924885
       -0.000134268066680
        0.000140774513743
        0.000000000000000
        0.000000000000000
        0.000000000000000
        0.000000000000000
        0.000000000000000
        0.000000000000000
       -0.000208430516988
       -0.000035166609719
        0.000000000000000
        0.000000000000000
        0.000000000000000
        0.000000000000000
        0.000000000000000
        0.000000000000000
        0.000000000000000
        0.000000000000000
        0.000000000000000
        0.000000000000000
        0.000000000000000
        0.000000000000000
        0.000000000000000
        0.000000000000000
        0.000000000000000
        0.000000000000000
        0.000000000000000
        0.000000000000000
        0.000000000000000
        0.000000000000000
        0.000000000000000
        0.000000000000000
        0.000000000000000
        0.000000000000000
        0.000000000000000
        0.000000000000000
        0.000000000000000
        0.000000000000000
        0.000000000000000
        0.000000000000000
        0.000000000000000
        0.000000000000000
        0.000000000000000
        0.000000000000000
        0.000000000000000
        0.000000000000000
        0.000000000000000
        0.000000000000000
        0.000000000000000
        0.000000000000000
        0.000000000000000
        0.000000000000000
        0.000000000000000
        0.000000000000000
       -0.000313101120939
       -0.000106857019255
        0.000000000000000
        0.000000000000000
        0.000000000000000
        0.000000000000000
        0.000000000000000
        0.000000000000000
       -0.001134661432985
       -0.000947200296407
       -0.000013844028659
        0.000313367335427
        0.000000000000000
        0.000000000000000
        0.000000000000000
        0.000000000000000
       -0.001498356194931
       -0.002429353176324
       -0.001354123226859
        0.000643504088644
        0.001031311029720
        0.000465839937258
        0.000000000000000
        0.000000000000000
       -0.000732459588549
       -0.002090373697260
       -0.002747596988691
       -0.000779188349136
        0.001605203823441
        0.001609582258286
        0.000613514095658
        0.000000000000000
        0.000000000000000
       -0.000577186573371
       -0.001454000899774
       -0.001572412711329
        0.000212324290254
        0.001673835325472
        0.001213841260110
        0.000000000000000
        0.000000000000000
        0.000000000000000
        0.000000000000000
       -0.000509348360366
       -0.000408239835472
        0.000467392085031
        0.000850611811008
        0.000000000000000
        0.000000000000000
        0.000000000000000
        0.000000000000000
        0.000000000000000
        0.000000000000000
       -0.000004071464380
        0.000194700946422
        0.000000000000000
        0.000000000000000
        0.000000000000000
        0.000000000000000
        0.000000000000000
        0.000000000000000
        0.000000000000000
        0.000000000000000
        0.000000000000000
        0.000000000000000
        0.000000000000000
        0.000000000000000
        0.000000000000000
        0.000000000000000
        0.000000000000000
        0.000000000000000
        0.000000000000000
        0.000000000000000
        0.000000000000000
        0.000000000000000
        0.000000000000000
        0.000000000000000
        0.000000000000000
        0.000000000000000
        0.000000000000000
       -0.001507241293078
       -0.001480341249485
       -0.000409883239152
        0.000146483320175
        0.000000000000000
        0.000000000000000
        0.000000000000000
        0.000000000000000
       -0.003050363903199
       -0.005766226329028
       -0.004583310391684
        0.000072491392646
        0.001381529337871
        0.000664904120556
        0.000000000000000
        0.000000000000000
       -0.002175141992295
       -0.007353643957370
       -0.012585640746624
       -0.007790680861741
        0.004529011164736
        0.004832452246726
        0.001865440450317
        0.000000000000000
        0.000000000000000
       -0.003058883434909
       -0.009627081907594
       -0.015874817421005
       -0.003568372646093
        0.011380128746650
        0.008124579786941
        0.002732289827227
        0.000000000000000
        0.000000000000000
       -0.002173530518829
       -0.006175730454090
       -0.008122078126871
        0.003299560795500
        0.010036731077846
        0.006491049337902
        0.001998324121538
        0.000000000000000
        0.000000000000000
       -0.000812577904549
       -0.001984264320326
       -0.001413303487799
        0.003085183724997
        0.004905808635776
        0.002775512727653
        0.000000000000000
        0.000000000000000
        0.000000000000000
        0.000000000000000
       -0.000293700170335
        0.000103404319990
        0.001155974525336
        0.001331719547071
        0.000000000000000
        0.000000000000000
        0.000000000000000
        0.000000000000000
        0.000000000000000
        0.000000000000000
        0.000000000000000
        0.000000000000000
        0.000000000000000
        0.000000000000000
        0.000000000000000
        0.000000000000000
        0.000000000000000
        0.000000000000000
        0.000000000000000
        0.000000000000000
       -0.000608780080716
       -0.000310475822207
        0.000000000000000
        0.000000000000000
        0.000000000000000
        0.000000000000000
        0.000000000000000
       -0.002316790020309
       -0.004358099308765
       -0.003938911061023
       -0.001181825595275
        0.000298935930219
        0.000281526827837
        0.000000000000000
        0.000000000000000
       -0.002621003573541
       -0.009299392311259
       -0.017675192603096
       -0.015148221362148
       -0.000027089957433
        0.003300455673736
        0.001529099417879
        0.000000000000000
        0.000000000000000
       -0.005932394265525
       -0.021828034566662
       -0.046550932046547
       -0.034179126715185
        0.019092092300731
        0.014127514108986
        0.004488292589223
        0.000824114313605
       -0.001163609198914
       -0.007442741093071
       -0.029236223232870
       -0.065779182368499
       -0.009468455379183
        0.055883774783761
        0.026878377093603
        0.007048784873435
        0.001117535783663
       -0.000872092466303
       -0.004888361050058
       -0.016396789090858
       -0.027417806758343
        0.024299200951932
        0.042365636811559
        0.020755507142261
        0.005735210142473
        0.000000000000000
        0.000000000000000
       -0.001738784209730
       -0.004196085300339
       -0.002236256780575
        0.012802221818660
        0.016608600889897
        0.009002823194272
        0.002573736681614
        0.000000000000000
        0.000000000000000
       -0.000338947403739
       -0.000507603169900
        0.000785709569394
        0.003550728555000
        0.004164275092384
        0.002270372795480
        0.000000000000000
        0.000000000000000
        0.000000000000000
        0.000000000000000
        0.000000000000000
        0.000263454703422
        0.000563946212970
        0.000000000000000
        0.000000000000000
        0.000000000000000
        0.000000000000000
        0.000000000000000
        0.000000000000000
        0.000000000000000
       -0.001000646705875
       -0.001055136812116
       -0.000414987916253
        0.000000000000000
        0.000000000000000
        0.000000000000000
        0.000000000000000
       -0.001246555881332
       -0.004025219660778
       -0.007041317859434
       -0.006122899753000
       -0.001931682149336
        0.000253746498916
        0.000315314159637
        0.000000000000000
        0.000000000000000
       -0.004460624482191
       -0.015810880395290
       -0.033145466303517
       -0.028037807099688
       -0.002146642169618
        0.004034867898127
        0.001909570365242
        0.000000000000000
       -0.001379487659702
       -0.009151799256301
       -0.039149412826503
       -0.104524127814076
       -0.074381036743918
        0.026896761237483
        0.020709084583150
        0.006096640936906
        0.001025603508406
       -0.001807003035486
       -0.010484685642858
       -0.048000307844248
       -0.127330264801704
       -0.000010391675425
        0.127286346608236
        0.047979805612413
        0.010475716174075
        0.001805036060499
       -0.001044780389694
       -0.006211983099714
       -0.021264707456222
       -0.028334871006213
        0.074368959579672
        0.105915080610178
        0.039676315536319
        0.009254313308999
        0.001396086947044
        0.000000000000000
       -0.001995460590791
       -0.004342414553069
        0.001599453590262
        0.028034978966572
        0.033680861261734
        0.016107379394891
        0.004541299943393
        0.000000000000000
        0.000000000000000
       -0.000347022753922
       -0.000338334072630
        0.001821630799109
        0.006122461445288
        0.007149312169021
        0.004107227499587
        0.001276980516143
        0.000000000000000
        0.000000000000000
        0.000000000000000
        0.000000000000000
        0.000396991392044
        0.001055073999228
        0.001018455810434
        0.000000000000000
        0.000000000000000
        0.000000000000000
        0.000000000000000
        0.000000000000000
        0.000000000000000
       -0.000896620345006
       -0.000806795051770
        0.000000000000000
        0.000000000000000
        0.000000000000000
        0.000000000000000
        0.000000000000000
       -0.001153886049485
       -0.003616259562600
       -0.006115832184859
       -0.005033411584627
       -0.001574859983735
        0.000085640845537
        0.000000000000000
        0.000000000000000
        0.000000000000000
       -0.003939811370496
       -0.013837983172421
       -0.028194831086932
       -0.020140033091977
       -0.002331869407119
        0.002546705551830
        0.001242680830772
        0.000000000000000
       -0.001195035264163
       -0.007606728702635
       -0.031913405304799
       -0.084458766922446
       -0.043432481831276
        0.013750123053339
        0.013476322360803
        0.004415133462057
        0.000000000000000
       -0.001260658850481
       -0.007921041262944
       -0.031177897049854
       -0.067079816451790
        0.009456378214938
        0.076928067063900
        0.033507023025866
        0.008302169372470
        0.001304154671787
        0.000000000000000
       -0.004226127473552
       -0.012421971994074
       -0.009586259796337
        0.053296931834618
        0.092745581117162
        0.034159980638152
        0.007996252045891
        0.001240817734526
        0.000000000000000
       -0.001198451180726
       -0.002256757113653
        0.003392495079315
        0.022482069092092
        0.030447311383618
        0.014723849418807
        0.004144898649380
        0.000000000000000
        0.000000000000000
        0.000000000000000
       -0.000040524928070
        0.001767531353107
        0.005420925893600
        0.006509972322643
        0.003822502315780
        0.001210102668178
        0.000000000000000
        0.000000000000000
        0.000000000000000
        0.000000000000000
        0.000000000000000
        0.000851562531254
        0.000943454167491
        0.000000000000000
        0.000000000000000
        0.000000000000000
        0.000000000000000
        0.000000000000000
        0.000000000000000
        0.000000000000000
        0.000000000000000
        0.000000000000000
        0.000000000000000
        0.000000000000000
        0.000000000000000
        0.000000000000000
        0.000000000000000
       -0.001685406886975
       -0.002906752925868
       -0.002290021657411
       -0.000723398114884
        0.000000000000000
        0.000000000000000
        0.000000000000000
        0.000000000000000
       -0.001821800389739
       -0.006112623622784
       -0.010607339290415
       -0.007187948284776
       -0.000984113999375
        0.000900900955157
        0.000000000000000
        0.000000000000000
        0.000000000000000
       -0.003505065061397
       -0.011858338018670
       -0.022309009740636
       -0.010637372068818
        0.004240000404932
        0.005058479408200
        0.001818093390847
        0.000000000000000
        0.000000000000000
       -0.003397201638074
       -0.010526213040766
       -0.015671195292250
        0.003565544512976
        0.020154090345466
        0.012017667506077
        0.003718580481408
        0.000000000000000
        0.000000000000000
       -0.001644312761972
       -0.004202505467541
       -0.001697056777157
        0.015124528591685
        0.025891210261449
        0.013191852845817
        0.003808557616941
        0.000000000000000
        0.000000000000000
        0.000000000000000
       -0.000628063204150
        0.001842675583594
        0.008684697112000
        0.011943844292508
        0.006710774178180
        0.001967372348006
        0.000000000000000
        0.000000000000000
        0.000000000000000
        0.000000000000000
        0.000898658405568
        0.002614082793256
        0.003212216993850
        0.001831552080301
        0.000000000000000
        0.000000000000000
        0.000000000000000
        0.000000000000000
        0.000000000000000
        0.000000000000000
        0.000000000000000
        0.000000000000000
        0.000000000000000
        0.000000000000000
        0.000000000000000
        0.000000000000000
        0.000000000000000
        0.000000000000000
        0.000000000000000
        0.000000000000000
        0.000000000000000
        0.000000000000000
        0.000000000000000
        0.000000000000000
        0.000000000000000
        0.000000000000000
        0.000000000000000
       -0.000765020971927
       -0.000617550013486
        0.000000000000000
        0.000000000000000
        0.000000000000000
        0.000000000000000
        0.000000000000000
        0.000000000000000
       -0.001469758696944
       -0.002395108770406
       -0.001601439217106
       -0.000242290378821
        0.000000000000000
        0.000000000000000
        0.000000000000000
        0.000000000000000
       -0.000915646879854
       -0.002669861832726
       -0.003757709904136
       -0.001695007319880
        0.000915579783177
        0.001142172380906
        0.000000000000000
        0.000000000000000
        0.000000000000000
       -0.000861119046706
       -0.002273180036148
       -0.002472090071633
        0.000778750041424
        0.003612426196244
        0.002751391740217
        0.000978780580122
        0.000000000000000
        0.000000000000000
        0.000000000000000
       -0.000858958753448
       -0.000161214779334
        0.002836138059436
        0.004684642638724
        0.003090127216278
        0.001025789558758
        0.000000000000000
        0.000000000000000
        0.000000000000000
        0.000000000000000
        0.000526078545476
        0.002080941840178
        0.002816177783357
        0.001664668065049
        0.000000000000000
        0.000000000000000
        0.000000000000000
        0.000000000000000
        0.000000000000000
        0.000000000000000
        0.000735869813689
        0.000875734032999
        0.000000000000000
        0.000000000000000
        0.000000000000000
        0.000000000000000
        0.000000000000000
        0.000000000000000
        0.000000000000000
        0.000000000000000
        0.000000000000000
        0.000000000000000
        0.000000000000000
        0.000000000000000
        0.000000000000000
        0.000000000000000
        0.000000000000000
        0.000000000000000
        0.000000000000000
        0.000000000000000
        0.000000000000000
        0.000000000000000
        0.000000000000000
        0.000000000000000
        0.000000000000000
        0.000000000000000
        0.000000000000000
        0.000000000000000
        0.000000000000000
        0.000000000000000
        0.000000000000000
        0.000000000000000
        0.000000000000000
        0.000000000000000
        0.000000000000000
        0.000000000000000
        0.000000000000000
        0.000000000000000
        0.000000000000000
        0.000000000000000
        0.000000000000000
        0.000000000000000
        0.000000000000000
        0.000000000000000
       -0.000424735124596
       -0.000207682229082
        0.000000000000000
        0.000000000000000
        0.000000000000000
        0.000000000000000
        0.000000000000000
        0.000000000000000
        0.000000000000000
       -0.000282705388946
        0.000134205253792
        0.000462693380437
        0.000000000000000
        0.000000000000000
        0.000000000000000
        0.000000000000000
        0.000000000000000
        0.000000000000000
        0.000000000000000
        0.000387733500116
        0.000578168617163
        0.000000000000000
        0.000000000000000
        0.000000000000000
        0.000000000000000
        0.000000000000000
        0.000000000000000
        0.000000000000000
        0.000000000000000
        0.000000000000000
        0.000000000000000
        0.000000000000000
        0.000000000000000
        0.000000000000000
        0.000000000000000
        0.000000000000000
        0.000000000000000
        0.000000000000000
        0.000000000000000
        0.000000000000000
        0.000000000000000
        0.000000000000000
        0.000000000000000
        0.000000000000000
        0.000000000000000
        0.000000000000000
        0.000000000000000
        0.000000000000000
        0.000000000000000
        0.000000000000000
        0.000000000000000
END_DATAGRID_3D
END_BLOCK_DATAGRID_3D
