ATOMS
         C    7.558905    7.558905    7.558905
         H    8.755769    8.755769    8.755769
         H    6.362040    6.362040    8.755769
         H    8.755769    6.362040    6.362040
         H    6.362040    8.755769    6.362040
BEGIN_BLOCK_DATAGRID_3D
units: coords = b, function = sqrt(b^-3)
BEGIN_DATAGRID_3D_function
      9      9      9
0.0 0.0 0.0
   15.117809    0.000000    0.000000
    0.000000   15.117809    0.000000
    0.000000    0.000000   15.117809
        0.000000000000000
        0.000000000000000
        0.000000000000000
        0.000000000000000
        0.000000000000000
        0.000000000000000
        0.000000000000000
        0.000000000000000
        0.000000000000000
        0.000000000000000
        0.000000000000000
        0.000000000000000
        0.000000000000000
        0.000000000000000
        0.000000000000000
        0.000000000000000
        0.000000000000000
        0.000000000000000
        0.000000000000000
        0.000000000000000
        0.000000000000000
        0.000000000000000
        0.000000000000000
        0.000000000000000
        0.000000000000000
        0.000000000000000
        0.000000000000000
        0.000000000000000
        0.000000000000000
        0.000000000000000
        0.000000000000000
       -0.000211274344611
       -0.000205549579057
        0.000000000000000
        0.000000000000000
        0.000000000000000
        0.000000000000000
        0.000000000000000
        0.000000000000000
       -0.000125688169404
       -0.000246347898965
       -0.000205260960445
        0.000000000000000
        0.000000000000000
        0.000000000000000
        0.000000000000000
        0.000000000000000
        0.000000000000000
       -0.000076993444996
       -0.000119229604951
        0.000000000000000
        0.000000000000000
        0.000000000000000
        0.000000000000000
        0.000000000000000
        0.000000000000000
        0.000000000000000
        0.000000000000000
        0.000000000000000
        0.000000000000000
        0.000000000000000
        0.000000000000000
        0.000000000000000
        0.000000000000000
        0.000000000000000
        0.000000000000000
        0.000000000000000
        0.000000000000000
        0.000000000000000
        0.000000000000000
        0.000000000000000
        0.000000000000000
        0.000000000000000
        0.000000000000000
        0.000000000000000
        0.000000000000000
        0.000000000000000
        0.000000000000000
        0.000000000000000
        0.000000000000000
        0.000000000000000
        0.000000000000000
        0.000000000000000
        0.000000000000000
        0.000000000000000
        0.000000000000000
        0.000000000000000
        0.000000000000000
        0.000000000000000
        0.000000000000000
        0.000000000000000
        0.000000000000000
        0.000000000000000
        0.000000000000000
       -0.000221338235688
       -0.000223596729593
        0.000000000000000
        0.000000000000000
        0.000000000000000
        0.000000000000000
        0.000000000000000
        0.000000000000000
       -0.000375363620954
       -0.000747775137154
       -0.000751740334667
       -0.000382314830845
        0.000000000000000
        0.000000000000000
        0.000000000000000
        0.000000000000000
       -0.000199940598769
       -0.000739813323553
       -0.001420484402022
       -0.001394087124290
       -0.000729473416440
       -0.000211520049984
        0.000000000000000
        0.000000000000000
       -0.000018913611077
       -0.000194496748136
       -0.000744360693432
       -0.001429523646045
       -0.001353867648691
       -0.000691393530598
       -0.000201463248151
        0.000000000000000
        0.000000000000000
        0.000004299748707
       -0.000052502682448
       -0.000315718262184
       -0.000674292013293
       -0.000644676219718
       -0.000322174320486
        0.000000000000000
        0.000000000000000
        0.000000000000000
        0.000000000000000
        0.000018547934363
       -0.000026680314541
       -0.000132488280195
       -0.000144058623140
        0.000000000000000
        0.000000000000000
        0.000000000000000
        0.000000000000000
        0.000000000000000
        0.000000000000000
        0.000018669351846
        0.000004053662870
        0.000000000000000
        0.000000000000000
        0.000000000000000
        0.000000000000000
        0.000000000000000
        0.000000000000000
        0.000000000000000
        0.000000000000000
        0.000000000000000
        0.000000000000000
        0.000000000000000
        0.000000000000000
        0.000000000000000
        0.000000000000000
        0.000000000000000
        0.000000000000000
        0.000000000000000
        0.000000000000000
        0.000000000000000
        0.000000000000000
        0.000000000000000
        0.000000000000000
        0.000000000000000
        0.000000000000000
        0.000000000000000
       -0.000363568322288
       -0.000730797314310
       -0.000739053842285
       -0.000376937736233
        0.000000000000000
        0.000000000000000
        0.000000000000000
        0.000000000000000
       -0.000320285944284
       -0.001316798215021
       -0.002749395019897
       -0.002811779012713
       -0.001379332437723
       -0.000365829587602
        0.000000000000000
        0.000000000000000
       -0.000043153788565
       -0.000553034601545
       -0.002604422569923
       -0.006308966408096
       -0.006380918218331
       -0.002706898599944
       -0.000689332672213
        0.000000000000000
        0.000000000000000
        0.000029343981545
       -0.000314589442304
       -0.002397582233142
       -0.006545894587067
       -0.005860711560705
       -0.002458002474030
       -0.000635704079712
        0.000000000000000
        0.000000000000000
        0.000113261653333
        0.000214246419539
       -0.000242295593310
       -0.001929582970060
       -0.002062759187937
       -0.001028060719205
       -0.000282345043446
        0.000000000000000
        0.000000000000000
        0.000088168267207
        0.000256461236991
        0.000334502105099
        0.000001237996932
       -0.000252806468533
       -0.000179624436008
        0.000000000000000
        0.000000000000000
        0.000000000000000
        0.000000000000000
        0.000101575115234
        0.000171480331020
        0.000135788229252
        0.000044482830160
        0.000000000000000
        0.000000000000000
        0.000000000000000
        0.000000000000000
        0.000000000000000
        0.000000000000000
        0.000000000000000
        0.000000000000000
        0.000000000000000
        0.000000000000000
        0.000000000000000
        0.000000000000000
        0.000000000000000
        0.000000000000000
        0.000000000000000
        0.000000000000000
       -0.000196502589042
       -0.000193848887969
        0.000000000000000
        0.000000000000000
        0.000000000000000
        0.000000000000000
        0.000000000000000
       -0.000174184524013
       -0.000678754947637
       -0.001338171532911
       -0.001335615975682
       -0.000705875306329
       -0.000205546548227
        0.000000000000000
        0.000000000000000
       -0.000029206476390
       -0.000491803568869
       -0.002443300899339
       -0.006074664306659
       -0.006234972913114
       -0.002657535949158
       -0.000678432038119
        0.000000000000000
        0.000000000000000
        0.000074346853584
       -0.000451031290713
       -0.004916791104391
       -0.017808730373419
       -0.018951353756744
       -0.005910711080584
       -0.001205968670628
       -0.000167981925223
        0.000069127988556
        0.000343998269407
        0.000707829470268
       -0.002559193626095
       -0.017364635656668
       -0.015633992380527
       -0.005076073360769
       -0.001080321315365
       -0.000156610462267
        0.000076062225517
        0.000450515390227
        0.001673715684574
        0.003564874584940
       -0.000309846094620
       -0.002725788954338
       -0.001508621555303
       -0.000436363708161
        0.000000000000000
        0.000000000000000
        0.000279641569070
        0.000976423029876
        0.002037321944067
        0.001772684705985
        0.000512767670337
       -0.000037903658491
       -0.000054192186647
        0.000000000000000
        0.000000000000000
        0.000095474770959
        0.000311864456761
        0.000597590483726
        0.000626363191944
        0.000331340731042
        0.000094307546387
        0.000000000000000
        0.000000000000000
        0.000000000000000
        0.000000000000000
        0.000000000000000
        0.000105778556336
        0.000114170270515
        0.000000000000000
        0.000000000000000
        0.000000000000000
        0.000000000000000
        0.000000000000000
        0.000000000000000
        0.000000000000000
       -0.000104170017800
       -0.000217022770487
       -0.000187458930844
        0.000000000000000
        0.000000000000000
        0.000000000000000
        0.000000000000000
       -0.000002831976888
       -0.000133608979656
       -0.000608434171800
       -0.001259352668544
       -0.001240569899632
       -0.000647706633955
       -0.000191798926952
        0.000000000000000
        0.000000000000000
        0.000073192289315
       -0.000119989495068
       -0.001850837066350
       -0.005766662897901
       -0.005427412219299
       -0.002326227240758
       -0.000609040171697
        0.000000000000000
        0.000075841300789
        0.000397457199595
        0.001019800781518
       -0.001332574609348
       -0.015297485879485
       -0.014705504868035
       -0.004877294711705
       -0.001049461750086
       -0.000153614503363
        0.000141762277081
        0.000827377981587
        0.003811306314892
        0.010170043745018
        0.000002880092134
       -0.010286354252210
       -0.003899938490542
       -0.000856625520851
       -0.000148437372203
        0.000114344360982
        0.000815000194175
        0.003776963006380
        0.011944052993007
        0.015298696999643
        0.003972460644501
       -0.000031226641275
       -0.000205768356953
       -0.000045535140448
        0.000000000000000
        0.000436322484027
        0.001720042211617
        0.004370366196447
        0.005766899541728
        0.002878950076884
        0.000688853030742
        0.000081582644466
        0.000000000000000
        0.000000000000000
        0.000128597589138
        0.000480045132842
        0.001025317937529
        0.001259388453178
        0.000818898900330
        0.000293196878581
        0.000061605261806
        0.000000000000000
        0.000000000000000
        0.000000000000000
        0.000000000000000
        0.000152385980520
        0.000217026177401
        0.000138692179815
        0.000000000000000
        0.000000000000000
        0.000000000000000
        0.000000000000000
        0.000000000000000
        0.000000000000000
       -0.000055206208799
       -0.000094658671149
        0.000000000000000
        0.000000000000000
        0.000000000000000
        0.000000000000000
        0.000000000000000
        0.000022339789202
        0.000015541435523
       -0.000171887183998
       -0.000507241145329
       -0.000540610187018
       -0.000285823194902
        0.000000000000000
        0.000000000000000
        0.000000000000000
        0.000168512997947
        0.000455372513378
        0.000393153122244
       -0.001183148754839
       -0.001666557545524
       -0.000900968694390
       -0.000257855641714
        0.000000000000000
        0.000086105762689
        0.000535540426507
        0.002162048530962
        0.005370662462251
        0.001847045839168
       -0.001809185949499
       -0.001274074139741
       -0.000393581921865
        0.000000000000000
        0.000121057673215
        0.000868459124364
        0.004088934317630
        0.013170672009753
        0.017365846776827
        0.004900948156992
        0.000167552007789
       -0.000174908791674
       -0.000042539181544
        0.000000000000000
        0.000727365102521
        0.003170307263758
        0.009400441394657
        0.016272763751975
        0.009913238351144
        0.001985615940350
        0.000185108609418
       -0.000001829213388
        0.000000000000000
        0.000330641558039
        0.001409288441970
        0.003584032889686
        0.005485450385757
        0.003776532437128
        0.001192328560927
        0.000214494981805
        0.000000000000000
        0.000000000000000
        0.000000000000000
        0.000361347322942
        0.000885655636451
        0.001219103928599
        0.000905013572134
        0.000370837302880
        0.000083583442876
        0.000000000000000
        0.000000000000000
        0.000000000000000
        0.000000000000000
        0.000000000000000
        0.000176997560410
        0.000142696655431
        0.000000000000000
        0.000000000000000
        0.000000000000000
        0.000000000000000
        0.000000000000000
        0.000000000000000
        0.000000000000000
        0.000000000000000
        0.000000000000000
        0.000000000000000
        0.000000000000000
        0.000000000000000
        0.000000000000000
        0.000000000000000
        0.000055558489356
        0.000052414759281
       -0.000044677861579
       -0.000093639997867
        0.000000000000000
        0.000000000000000
        0.000000000000000
        0.000000000000000
        0.000119738500110
        0.000386376757314
        0.000625558434292
        0.000328386481170
       -0.000064133734059
       -0.000119223781444
        0.000000000000000
        0.000000000000000
        0.000000000000000
        0.000334892913684
        0.001217549123716
        0.002672770659621
        0.002519118921206
        0.000908969312749
        0.000089188366325
       -0.000029702784916
        0.000000000000000
        0.000000000000000
        0.000480170791796
        0.001914642158852
        0.004917111363239
        0.006546131230893
        0.003312249418290
        0.000820628264015
        0.000108246552481
        0.000000000000000
        0.000000000000000
        0.000344588870214
        0.001470519474646
        0.003745154560271
        0.005719752487195
        0.003922477742345
        0.001241691211713
        0.000225395615898
        0.000000000000000
        0.000000000000000
        0.000000000000000
        0.000612341610969
        0.001630160952201
        0.002419881990562
        0.001840661685251
        0.000721497750469
        0.000150602505605
        0.000000000000000
        0.000000000000000
        0.000000000000000
        0.000000000000000
        0.000412179839448
        0.000639709380510
        0.000512577464948
        0.000216146665673
        0.000000000000000
        0.000000000000000
        0.000000000000000
        0.000000000000000
        0.000000000000000
        0.000000000000000
        0.000000000000000
        0.000000000000000
        0.000000000000000
        0.000000000000000
        0.000000000000000
        0.000000000000000
        0.000000000000000
        0.000000000000000
        0.000000000000000
        0.000000000000000
        0.000000000000000
        0.000000000000000
        0.000000000000000
        0.000000000000000
        0.000000000000000
        0.000000000000000
        0.000000000000000
        0.000042760140314
        0.000029918080964
        0.000000000000000
        0.000000000000000
        0.000000000000000
        0.000000000000000
        0.000000000000000
        0.000000000000000
        0.000138585670227
        0.000250575404842
        0.000223598647867
        0.000094901455433
        0.000000000000000
        0.000000000000000
        0.000000000000000
        0.000000000000000
        0.000113514811454
        0.000379908574733
        0.000741421561912
        0.000793414059908
        0.000435406763742
        0.000130658671971
        0.000000000000000
        0.000000000000000
        0.000000000000000
        0.000144679223328
        0.000540932901322
        0.001161244459162
        0.001429559430680
        0.000932196649389
        0.000336883775224
        0.000071269583006
        0.000000000000000
        0.000000000000000
        0.000000000000000
        0.000387103397698
        0.000946714012366
        0.001301416797710
        0.000963484720742
        0.000394435412990
        0.000089556944633
        0.000000000000000
        0.000000000000000
        0.000000000000000
        0.000000000000000
        0.000423975138114
        0.000656687203354
        0.000525263957330
        0.000221523760285
        0.000000000000000
        0.000000000000000
        0.000000000000000
        0.000000000000000
        0.000000000000000
        0.000000000000000
        0.000187371496913
        0.000161462868782
        0.000000000000000
        0.000000000000000
        0.000000000000000
        0.000000000000000
        0.000000000000000
        0.000000000000000
        0.000000000000000
        0.000000000000000
        0.000000000000000
        0.000000000000000
        0.000000000000000
        0.000000000000000
        0.000000000000000
        0.000000000000000
        0.000000000000000
        0.000000000000000
        0.000000000000000
        0.000000000000000
        0.000000000000000
        0.000000000000000
        0.000000000000000
        0.000000000000000
        0.000000000000000
        0.000000000000000
        0.000000000000000
        0.000000000000000
        0.000000000000000
        0.000000000000000
        0.000000000000000
        0.000000000000000
        0.000000000000000
        0.000000000000000
        0.000000000000000
        0.000000000000000
        0.000000000000000
        0.000000000000000
        0.000000000000000
        0.000000000000000
        0.000000000000000
        0.000000000000000
        0.000000000000000
        0.000000000000000
        0.000127565792532
        0.000138741204316
        0.000000000000000
        0.000000000000000
        0.000000000000000
        0.000000000000000
        0.000000000000000
        0.000000000000000
        0.000000000000000
        0.000173904132124
        0.000246351305878
        0.000156494209416
        0.000000000000000
        0.000000000000000
        0.000000000000000
        0.000000000000000
        0.000000000000000
        0.000000000000000
        0.000000000000000
        0.000191769315980
        0.000154397346520
        0.000000000000000
        0.000000000000000
        0.000000000000000
        0.000000000000000
        0.000000000000000
        0.000000000000000
        0.000000000000000
        0.000000000000000
        0.000000000000000
        0.000000000000000
        0.000000000000000
        0.000000000000000
        0.000000000000000
        0.000000000000000
        0.000000000000000
        0.000000000000000
        0.000000000000000
        0.000000000000000
        0.000000000000000
        0.000000000000000
        0.000000000000000
        0.000000000000000
        0.000000000000000
        0.000000000000000
        0.000000000000000
        0.000000000000000
        0.000000000000000
        0.000000000000000
        0.000000000000000
        0.000000000000000
END_DATAGRID_3D
END_BLOCK_DATAGRID_3D
