ATOMS
         C    7.558905    7.558905    7.558905
         H    8.755769    8.755769    8.755769
         H    6.362040    6.362040    8.755769
         H    8.755769    6.362040    6.362040
         H    6.362040    8.755769    6.362040
BEGIN_BLOCK_DATAGRID_3D
units: coords = b, function = sqrt(b^-3)
BEGIN_DATAGRID_3D_function
      9      9      9
0.0 0.0 0.0
   15.117809    0.000000    0.000000
    0.000000   15.117809    0.000000
    0.000000    0.000000   15.117809
        0.000000000000000
        0.000000000000000
        0.000000000000000
        0.000000000000000
        0.000000000000000
        0.000000000000000
        0.000000000000000
        0.000000000000000
        0.000000000000000
        0.000000000000000
        0.000000000000000
        0.000000000000000
        0.000000000000000
        0.000000000000000
        0.000000000000000
        0.000000000000000
        0.000000000000000
        0.000000000000000
        0.000000000000000
        0.000000000000000
        0.000000000000000
        0.000000000000000
        0.000000000000000
        0.000000000000000
        0.000000000000000
        0.000000000000000
        0.000000000000000
        0.000000000000000
        0.000000000000000
        0.000000000000000
        0.000000000000000
        0.000759168593620
        0.000529049260826
        0.000000000000000
        0.000000000000000
        0.000000000000000
        0.000000000000000
        0.000000000000000
        0.000000000000000
        0.001213147061088
        0.001518495637532
        0.000824118308487
        0.000000000000000
        0.000000000000000
        0.000000000000000
        0.000000000000000
        0.000000000000000
        0.000000000000000
        0.001208125302520
        0.001278072936122
        0.000000000000000
        0.000000000000000
        0.000000000000000
        0.000000000000000
        0.000000000000000
        0.000000000000000
        0.000000000000000
        0.000000000000000
        0.000000000000000
        0.000000000000000
        0.000000000000000
        0.000000000000000
        0.000000000000000
        0.000000000000000
        0.000000000000000
        0.000000000000000
        0.000000000000000
        0.000000000000000
        0.000000000000000
        0.000000000000000
        0.000000000000000
        0.000000000000000
        0.000000000000000
        0.000000000000000
        0.000000000000000
        0.000000000000000
        0.000000000000000
        0.000000000000000
        0.000000000000000
        0.000000000000000
        0.000000000000000
        0.000000000000000
        0.000000000000000
        0.000000000000000
        0.000000000000000
        0.000000000000000
        0.000000000000000
        0.000000000000000
        0.000000000000000
        0.000000000000000
        0.000000000000000
        0.000000000000000
        0.000000000000000
        0.000000000000000
        0.000023834360742
       -0.000044045401278
        0.000000000000000
        0.000000000000000
        0.000000000000000
        0.000000000000000
        0.000000000000000
        0.000000000000000
        0.000869322693765
        0.000948687150644
        0.000410652180050
        0.000046137716982
        0.000000000000000
        0.000000000000000
        0.000000000000000
        0.000000000000000
        0.001807047978729
        0.003802717987831
        0.004323070706467
        0.002392942751838
        0.000648337914733
        0.000086226898649
        0.000000000000000
        0.000000000000000
        0.001105083287594
        0.003896684930139
        0.007917124227631
        0.008811696352965
        0.004995651582568
        0.001529972696362
        0.000234576864236
        0.000000000000000
        0.000000000000000
        0.001168838140698
        0.004125166035794
        0.008109194460648
        0.008589342014124
        0.004734971081674
        0.001403143000556
        0.000000000000000
        0.000000000000000
        0.000000000000000
        0.000000000000000
        0.002168464248341
        0.004362487431544
        0.004477388764423
        0.002340621424823
        0.000000000000000
        0.000000000000000
        0.000000000000000
        0.000000000000000
        0.000000000000000
        0.000000000000000
        0.001298846579442
        0.001315548815202
        0.000000000000000
        0.000000000000000
        0.000000000000000
        0.000000000000000
        0.000000000000000
        0.000000000000000
        0.000000000000000
        0.000000000000000
        0.000000000000000
        0.000000000000000
        0.000000000000000
        0.000000000000000
        0.000000000000000
        0.000000000000000
        0.000000000000000
        0.000000000000000
        0.000000000000000
        0.000000000000000
        0.000000000000000
        0.000000000000000
        0.000000000000000
        0.000000000000000
        0.000000000000000
        0.000000000000000
        0.000000000000000
       -0.000268510537762
       -0.000679488600319
       -0.000798824291852
       -0.000463514571568
        0.000000000000000
        0.000000000000000
        0.000000000000000
        0.000000000000000
        0.000883600594760
        0.001417179304138
        0.000523273960880
       -0.001017565666738
       -0.000937056739451
       -0.000345524478072
        0.000000000000000
        0.000000000000000
        0.001452962020602
        0.005509622474507
        0.011823325946153
        0.012788918304940
        0.003990372048684
        0.000065253313135
       -0.000281097239768
        0.000000000000000
        0.000000000000000
        0.003390085465035
        0.013529058968363
        0.033637741616730
        0.040349855166369
        0.017148249240105
        0.003413497506372
        0.000278857892430
        0.000000000000000
        0.000000000000000
        0.003748940500743
        0.015097168672757
        0.036623307728645
        0.037995281429591
        0.016965889331200
        0.004204265776090
        0.000528852540930
        0.000000000000000
        0.000000000000000
        0.002009982499881
        0.007745155206551
        0.016178719750126
        0.016417034539414
        0.008295624783387
        0.002208044795510
        0.000000000000000
        0.000000000000000
        0.000000000000000
        0.000000000000000
        0.002127722417443
        0.004265823881254
        0.004347296741214
        0.002249727037887
        0.000000000000000
        0.000000000000000
        0.000000000000000
        0.000000000000000
        0.000000000000000
        0.000000000000000
        0.000000000000000
        0.000000000000000
        0.000000000000000
        0.000000000000000
        0.000000000000000
        0.000000000000000
        0.000000000000000
        0.000000000000000
        0.000000000000000
        0.000000000000000
       -0.000657333321552
       -0.000586507651072
        0.000000000000000
        0.000000000000000
        0.000000000000000
        0.000000000000000
        0.000000000000000
       -0.000692392554875
       -0.002087539859503
       -0.003570693313481
       -0.003181488384450
       -0.001588285197283
       -0.000476652643075
        0.000000000000000
        0.000000000000000
        0.000091331459905
       -0.000432558986111
       -0.003719814883923
       -0.009680503637462
       -0.009923646979905
       -0.004613358705504
       -0.001308259587565
        0.000000000000000
        0.000000000000000
        0.001969455610200
        0.006985229585574
        0.013484561611594
        0.004860228403335
       -0.012950172958710
       -0.006703112437654
       -0.001890946241159
       -0.000328206479225
        0.000772397663784
        0.005460776663545
        0.026644179225170
        0.086348991334721
        0.107041014484136
        0.025347037969882
       -0.000119712049669
       -0.001070325060616
       -0.000264384480192
        0.000861083181122
        0.006375051784701
        0.032292831651149
        0.107014256762995
        0.106829781394295
        0.033705975389057
        0.005021601538121
        0.000208891967607
        0.000000000000000
        0.000000000000000
        0.003666805053158
        0.014723159653339
        0.035511315376868
        0.036199969312969
        0.015724283693192
        0.003729723116137
        0.000420141397952
        0.000000000000000
        0.000000000000000
        0.001123828256956
        0.003946365665304
        0.007663680778455
        0.007958626300696
        0.004264459013700
        0.001203535347245
        0.000000000000000
        0.000000000000000
        0.000000000000000
        0.000000000000000
        0.000000000000000
        0.001118973300592
        0.001164884166453
        0.000000000000000
        0.000000000000000
        0.000000000000000
        0.000000000000000
        0.000000000000000
        0.000000000000000
        0.000000000000000
       -0.000862600094379
       -0.001293774086790
       -0.000873141874946
        0.000000000000000
        0.000000000000000
        0.000000000000000
        0.000000000000000
       -0.000464931382516
       -0.002012201381181
       -0.005195603584370
       -0.007507630229768
       -0.005805754577560
       -0.002610656330445
       -0.000676105202044
        0.000000000000000
        0.000000000000000
       -0.000890735149358
       -0.005355835707943
       -0.019105630565695
       -0.034378112338447
       -0.024161577490583
       -0.009076200925805
       -0.002233670680199
        0.000000000000000
        0.000113119713030
        0.000241430743317
       -0.003630019029264
       -0.031975403523027
       -0.091197538191723
       -0.063177304938649
       -0.018960306470562
       -0.003978107064478
       -0.000545139317051
        0.000643313910157
        0.003732668946992
        0.017088662897427
        0.045331042019499
        0.000003699556238
       -0.045315406636375
       -0.017081363866563
       -0.003729475712714
       -0.000642613644389
        0.000749947657362
        0.005228252875449
        0.025138142250182
        0.079274738583471
        0.091201837801407
        0.015894758304041
       -0.002537592041178
       -0.001487009599217
       -0.000317010400184
        0.000000000000000
        0.003189175855349
        0.012530641018826
        0.030336374726003
        0.034379119186436
        0.012935031995346
        0.001905328707571
       -0.000062913509573
        0.000000000000000
        0.000000000000000
        0.001032263746025
        0.003565676809442
        0.007053872345758
        0.007507786272366
        0.003948218146352
        0.001058099317547
        0.000109229942909
        0.000000000000000
        0.000000000000000
        0.000000000000000
        0.000000000000000
        0.001077508344505
        0.001293796448902
        0.000658300348376
        0.000000000000000
        0.000000000000000
        0.000000000000000
        0.000000000000000
        0.000000000000000
        0.000000000000000
       -0.000893559033618
       -0.001078427180494
        0.000000000000000
        0.000000000000000
        0.000000000000000
        0.000000000000000
        0.000000000000000
       -0.000592362339551
       -0.002478222996310
       -0.005766095686435
       -0.007430774051097
       -0.005186320640855
       -0.002042303361478
        0.000000000000000
        0.000000000000000
        0.000000000000000
       -0.001645159568796
       -0.008302823396327
       -0.024677497313509
       -0.033587623915904
       -0.020806964670529
       -0.007841488482449
       -0.001778830024629
        0.000000000000000
       -0.000125161881065
       -0.001926655800456
       -0.015093845569323
       -0.067184906918954
       -0.100018112849797
       -0.053683832753552
       -0.017208527435309
       -0.003822531294957
        0.000000000000000
        0.000090669706608
        0.000008906955220
       -0.005136056004252
       -0.039049656274276
       -0.107036714874450
       -0.072629584604489
       -0.021378186462071
       -0.004394791603079
       -0.000597765237043
        0.000000000000000
        0.001647095227319
        0.005208167553674
        0.006500925784111
       -0.011666387398917
       -0.026865327943334
       -0.010487792307638
       -0.002553695559673
       -0.000406933132611
        0.000000000000000
        0.001268438459893
        0.004546681390396
        0.008804619840628
        0.007069569307524
       -0.000906302505086
       -0.001803501675607
       -0.000711749129185
        0.000000000000000
        0.000000000000000
        0.000000000000000
        0.001531623849529
        0.003009811913481
        0.003043078949734
        0.001284606731369
        0.000121005673432
       -0.000054384651685
        0.000000000000000
        0.000000000000000
        0.000000000000000
        0.000000000000000
        0.000000000000000
        0.000570899970580
        0.000361160063739
        0.000000000000000
        0.000000000000000
        0.000000000000000
        0.000000000000000
        0.000000000000000
        0.000000000000000
        0.000000000000000
        0.000000000000000
        0.000000000000000
        0.000000000000000
        0.000000000000000
        0.000000000000000
        0.000000000000000
        0.000000000000000
       -0.001423137491654
       -0.003267799463052
       -0.003943562889908
       -0.002466296479935
        0.000000000000000
        0.000000000000000
        0.000000000000000
        0.000000000000000
       -0.001072113460343
       -0.004862569765078
       -0.011899232357798
       -0.014956403063110
       -0.009691793279755
       -0.003516890445019
        0.000000000000000
        0.000000000000000
        0.000000000000000
       -0.001727295016381
       -0.008676832415746
       -0.025789489665285
       -0.035382936032525
       -0.022048570308537
       -0.008316031142402
       -0.001887541167607
        0.000000000000000
        0.000000000000000
       -0.001091644759044
       -0.006354253657480
       -0.022406997456422
       -0.040348848318379
       -0.028374794735341
       -0.010584369724606
       -0.002575442082202
        0.000000000000000
        0.000000000000000
       -0.000093192100804
       -0.001395500070222
       -0.006738520989447
       -0.015399852634877
       -0.014820321533675
       -0.006482113694246
       -0.001738911476981
        0.000000000000000
        0.000000000000000
        0.000000000000000
        0.000425961857094
       -0.000020350011559
       -0.001983414910452
       -0.003260388350812
       -0.001943896593144
       -0.000591596287279
        0.000000000000000
        0.000000000000000
        0.000000000000000
        0.000000000000000
        0.000485173060917
        0.000275863541972
       -0.000198838827633
       -0.000240688832035
        0.000000000000000
        0.000000000000000
        0.000000000000000
        0.000000000000000
        0.000000000000000
        0.000000000000000
        0.000000000000000
        0.000000000000000
        0.000000000000000
        0.000000000000000
        0.000000000000000
        0.000000000000000
        0.000000000000000
        0.000000000000000
        0.000000000000000
        0.000000000000000
        0.000000000000000
        0.000000000000000
        0.000000000000000
        0.000000000000000
        0.000000000000000
        0.000000000000000
        0.000000000000000
       -0.001025040806702
       -0.001165009673099
        0.000000000000000
        0.000000000000000
        0.000000000000000
        0.000000000000000
        0.000000000000000
        0.000000000000000
       -0.001463879322552
       -0.003364463013341
       -0.004073654913117
       -0.002557190866870
        0.000000000000000
        0.000000000000000
        0.000000000000000
        0.000000000000000
       -0.000637372223294
       -0.002657023366801
       -0.006211609368628
       -0.008061489764525
       -0.005656832708828
       -0.002241911014789
        0.000000000000000
        0.000000000000000
        0.000000000000000
       -0.000537750924086
       -0.002343209501878
       -0.006058855466243
       -0.008811540310367
       -0.006853188013776
       -0.003082529709260
       -0.000801452123372
        0.000000000000000
        0.000000000000000
        0.000000000000000
       -0.000967816684075
       -0.002880445933852
       -0.004850685070214
       -0.004289824404920
       -0.002115617438585
       -0.000617264193409
        0.000000000000000
        0.000000000000000
        0.000000000000000
        0.000000000000000
       -0.000652660170609
       -0.001352312208991
       -0.001408315299535
       -0.000750341120585
        0.000000000000000
        0.000000000000000
        0.000000000000000
        0.000000000000000
        0.000000000000000
        0.000000000000000
       -0.000174344888663
       -0.000229683678546
        0.000000000000000
        0.000000000000000
        0.000000000000000
        0.000000000000000
        0.000000000000000
        0.000000000000000
        0.000000000000000
        0.000000000000000
        0.000000000000000
        0.000000000000000
        0.000000000000000
        0.000000000000000
        0.000000000000000
        0.000000000000000
        0.000000000000000
        0.000000000000000
        0.000000000000000
        0.000000000000000
        0.000000000000000
        0.000000000000000
        0.000000000000000
        0.000000000000000
        0.000000000000000
        0.000000000000000
        0.000000000000000
        0.000000000000000
        0.000000000000000
        0.000000000000000
        0.000000000000000
        0.000000000000000
        0.000000000000000
        0.000000000000000
        0.000000000000000
        0.000000000000000
        0.000000000000000
        0.000000000000000
        0.000000000000000
        0.000000000000000
        0.000000000000000
        0.000000000000000
        0.000000000000000
        0.000000000000000
       -0.000982711035546
       -0.001191615950163
        0.000000000000000
        0.000000000000000
        0.000000000000000
        0.000000000000000
        0.000000000000000
        0.000000000000000
        0.000000000000000
       -0.000998238810962
       -0.001518473275420
       -0.001038959835056
        0.000000000000000
        0.000000000000000
        0.000000000000000
        0.000000000000000
        0.000000000000000
        0.000000000000000
        0.000000000000000
       -0.000845601944591
       -0.000754396848159
        0.000000000000000
        0.000000000000000
        0.000000000000000
        0.000000000000000
        0.000000000000000
        0.000000000000000
        0.000000000000000
        0.000000000000000
        0.000000000000000
        0.000000000000000
        0.000000000000000
        0.000000000000000
        0.000000000000000
        0.000000000000000
        0.000000000000000
        0.000000000000000
        0.000000000000000
        0.000000000000000
        0.000000000000000
        0.000000000000000
        0.000000000000000
        0.000000000000000
        0.000000000000000
        0.000000000000000
        0.000000000000000
        0.000000000000000
        0.000000000000000
        0.000000000000000
        0.000000000000000
        0.000000000000000
END_DATAGRID_3D
END_BLOCK_DATAGRID_3D
