ATOMS
         C    7.558905    7.558905    7.558905
         H    8.755769    8.755769    8.755769
         H    6.362040    6.362040    8.755769
         H    8.755769    6.362040    6.362040
         H    6.362040    8.755769    6.362040
BEGIN_BLOCK_DATAGRID_3D
units: coords = b, function = 1/hbar/H*b^-2
BEGIN_DATAGRID_3D_function
      9      9      9
0.0 0.0 0.0
   15.117809    0.000000    0.000000
    0.000000   15.117809    0.000000
    0.000000    0.000000   15.117809
        0.000000000000000
        0.000000000000000
        0.000000000000000
        0.000000000000000
        0.000000000000000
        0.000000000000000
        0.000000000000000
        0.000000000000000
        0.000000000000000
        0.000000000000000
        0.000000000000000
        0.000000000000000
        0.000000000000000
        0.000000000000000
        0.000000000000000
        0.000000000000000
        0.000000000000000
        0.000000000000000
        0.000000000000000
        0.000000000000000
        0.000000000000000
        0.000000000000000
        0.000000000000000
        0.000000000000000
        0.000000000000000
        0.000000000000000
        0.000000000000000
        0.000000000000000
        0.000000000000000
        0.000000000000000
        0.000000000000000
       -0.000000001387434
       -0.000000000072777
        0.000000000000000
        0.000000000000000
        0.000000000000000
        0.000000000000000
        0.000000000000000
        0.000000000000000
       -0.000000000071399
       -0.000000004122874
       -0.000000000072777
        0.000000000000000
        0.000000000000000
        0.000000000000000
        0.000000000000000
        0.000000000000000
        0.000000000000000
       -0.000000000071399
       -0.000000001387385
        0.000000000000000
        0.000000000000000
        0.000000000000000
        0.000000000000000
        0.000000000000000
        0.000000000000000
        0.000000000000000
        0.000000000000000
        0.000000000000000
        0.000000000000000
        0.000000000000000
        0.000000000000000
        0.000000000000000
        0.000000000000000
        0.000000000000000
        0.000000000000000
        0.000000000000000
        0.000000000000000
        0.000000000000000
        0.000000000000000
        0.000000000000000
        0.000000000000000
        0.000000000000000
        0.000000000000000
        0.000000000000000
        0.000000000000000
        0.000000000000000
        0.000000000000000
        0.000000000000000
        0.000000000000000
        0.000000000000000
        0.000000000000000
        0.000000000000000
        0.000000000000000
        0.000000000000000
        0.000000000000000
        0.000000000000000
        0.000000000000000
        0.000000000000000
        0.000000000000000
        0.000000000000000
        0.000000000000000
        0.000000000000000
        0.000000000000000
       -0.000000002075039
        0.000000001863945
        0.000000000000000
        0.000000000000000
        0.000000000000000
        0.000000000000000
        0.000000000000000
        0.000000000000000
       -0.000000004567429
       -0.000000004329468
        0.000000002975881
        0.000000002807074
        0.000000000000000
        0.000000000000000
        0.000000000000000
        0.000000000000000
       -0.000000003225999
       -0.000000008461368
        0.000000000860875
       -0.000000000211287
        0.000000003975078
       -0.000000000047580
        0.000000000000000
        0.000000000000000
       -0.000000000047844
       -0.000000005668643
        0.000000001621888
       -0.000000000800888
        0.000000001638840
       -0.000000005681736
       -0.000000000047580
        0.000000000000000
        0.000000000000000
       -0.000000000047844
        0.000000003951663
       -0.000000000222400
        0.000000000843698
       -0.000000008475683
       -0.000000003240016
        0.000000000000000
        0.000000000000000
        0.000000000000000
        0.000000000000000
        0.000000002797406
        0.000000002974004
       -0.000000004328762
       -0.000000004580288
        0.000000000000000
        0.000000000000000
        0.000000000000000
        0.000000000000000
        0.000000000000000
        0.000000000000000
        0.000000001864177
       -0.000000002073616
        0.000000000000000
        0.000000000000000
        0.000000000000000
        0.000000000000000
        0.000000000000000
        0.000000000000000
        0.000000000000000
        0.000000000000000
        0.000000000000000
        0.000000000000000
        0.000000000000000
        0.000000000000000
        0.000000000000000
        0.000000000000000
        0.000000000000000
        0.000000000000000
        0.000000000000000
        0.000000000000000
        0.000000000000000
        0.000000000000000
        0.000000000000000
        0.000000000000000
        0.000000000000000
        0.000000000000000
        0.000000000000000
       -0.000000006565430
       -0.000000003129855
        0.000000001679137
        0.000000004804232
        0.000000000000000
        0.000000000000000
        0.000000000000000
        0.000000000000000
       -0.000000009565981
        0.000000006820492
        0.000000043567207
       -0.000000036915217
       -0.000000022814085
        0.000000002197710
        0.000000000000000
        0.000000000000000
       -0.000000002328989
        0.000000002013458
        0.000000118835305
       -0.000000071723681
       -0.000000250934450
       -0.000000019442790
        0.000000002121751
        0.000000000000000
        0.000000000000000
       -0.000000004936140
        0.000000046870906
       -0.000000092118014
       -0.000000263480098
       -0.000000093712970
        0.000000047342123
       -0.000000004951692
        0.000000000000000
        0.000000000000000
        0.000000002084880
       -0.000000019163881
       -0.000000249511520
       -0.000000073299540
        0.000000119484419
        0.000000002219850
       -0.000000002349988
        0.000000000000000
        0.000000000000000
        0.000000002184889
       -0.000000022566665
       -0.000000037290869
        0.000000043447825
        0.000000007045670
       -0.000000009619964
        0.000000000000000
        0.000000000000000
        0.000000000000000
        0.000000000000000
        0.000000004781453
        0.000000001680718
       -0.000000003123884
       -0.000000006593442
        0.000000000000000
        0.000000000000000
        0.000000000000000
        0.000000000000000
        0.000000000000000
        0.000000000000000
        0.000000000000000
        0.000000000000000
        0.000000000000000
        0.000000000000000
        0.000000000000000
        0.000000000000000
        0.000000000000000
        0.000000000000000
        0.000000000000000
        0.000000000000000
       -0.000000003844676
        0.000000002472353
        0.000000000000000
        0.000000000000000
        0.000000000000000
        0.000000000000000
        0.000000000000000
       -0.000000005810372
       -0.000000014483763
       -0.000000031035293
        0.000000028611518
        0.000000011336265
        0.000000000144732
        0.000000000000000
        0.000000000000000
       -0.000000002027661
       -0.000000002311179
        0.000000434527592
        0.000000662690677
       -0.000000681015919
       -0.000000379478568
        0.000000014235282
        0.000000000000000
        0.000000000000000
       -0.000000021578348
        0.000000408669437
        0.000001109029091
       -0.000002045179834
       -0.000003628700906
       -0.000000389555063
        0.000000016016490
       -0.000000000162093
       -0.000000000162350
       -0.000000022699419
        0.000000543914100
       -0.000001803892721
       -0.000004823813533
       -0.000001821469096
        0.000000547580500
       -0.000000022636237
       -0.000000000162093
       -0.000000000162350
        0.000000015919248
       -0.000000385168353
       -0.000003608875022
       -0.000002063914810
        0.000001113764960
        0.000000412616372
       -0.000000021638649
        0.000000000000000
        0.000000000000000
        0.000000014196438
       -0.000000376186055
       -0.000000682220061
        0.000000661255782
        0.000000437571442
       -0.000000001984785
       -0.000000002063872
        0.000000000000000
        0.000000000000000
        0.000000000137683
        0.000000011268625
        0.000000028589996
       -0.000000030990165
       -0.000000014520183
       -0.000000005853184
        0.000000000000000
        0.000000000000000
        0.000000000000000
        0.000000000000000
        0.000000000000000
        0.000000002478641
       -0.000000003836795
        0.000000000000000
        0.000000000000000
        0.000000000000000
        0.000000000000000
        0.000000000000000
        0.000000000000000
        0.000000000000000
       -0.000000003268628
       -0.000000000007761
        0.000000003272096
        0.000000000000000
        0.000000000000000
        0.000000000000000
        0.000000000000000
        0.000000000075541
       -0.000000010757395
       -0.000000053431037
       -0.000000000070441
        0.000000053512216
        0.000000010841281
       -0.000000000069954
        0.000000000000000
        0.000000000000000
       -0.000000014310074
        0.000000266356737
        0.000001611939058
        0.000000002239570
       -0.000001617523293
       -0.000000269588517
        0.000000014414639
        0.000000000000000
       -0.000000001217838
       -0.000000033739440
        0.000001291668744
        0.000003230080809
        0.000000039262525
       -0.000003262327072
       -0.000001302119367
        0.000000033542808
        0.000000001244448
        0.000000000000000
       -0.000000000000000
       -0.000000000000000
       -0.000000000000000
       -0.000000000000000
       -0.000000000000000
       -0.000000000000000
        0.000000000000000
        0.000000000000000
        0.000000001217838
        0.000000033739440
       -0.000001291668744
       -0.000003230080809
       -0.000000039262525
        0.000003262327072
        0.000001302119367
       -0.000000033542808
       -0.000000001244448
        0.000000000000000
        0.000000014310074
       -0.000000266356737
       -0.000001611939058
       -0.000000002239570
        0.000001617523293
        0.000000269588517
       -0.000000014414639
        0.000000000000000
        0.000000000000000
       -0.000000000075541
        0.000000010757395
        0.000000053431037
        0.000000000070441
       -0.000000053512216
       -0.000000010841281
        0.000000000069954
        0.000000000000000
        0.000000000000000
        0.000000000000000
        0.000000000000000
        0.000000003268628
        0.000000000007761
       -0.000000003272096
        0.000000000000000
        0.000000000000000
        0.000000000000000
        0.000000000000000
        0.000000000000000
        0.000000000000000
       -0.000000002478641
        0.000000003836795
        0.000000000000000
        0.000000000000000
        0.000000000000000
        0.000000000000000
        0.000000000000000
       -0.000000000137683
       -0.000000011268625
       -0.000000028589996
        0.000000030990165
        0.000000014520183
        0.000000005853184
        0.000000000000000
        0.000000000000000
        0.000000000000000
       -0.000000014196438
        0.000000376186055
        0.000000682220061
       -0.000000661255782
       -0.000000437571442
        0.000000001984785
        0.000000002063872
        0.000000000000000
        0.000000000162350
       -0.000000015919248
        0.000000385168353
        0.000003608875022
        0.000002063914810
       -0.000001113764960
       -0.000000412616372
        0.000000021638649
        0.000000000000000
        0.000000000162350
        0.000000022699419
       -0.000000543914100
        0.000001803892721
        0.000004823813533
        0.000001821469096
       -0.000000547580500
        0.000000022636237
        0.000000000162093
        0.000000000000000
        0.000000021578348
       -0.000000408669437
       -0.000001109029091
        0.000002045179834
        0.000003628700906
        0.000000389555063
       -0.000000016016490
        0.000000000162093
        0.000000000000000
        0.000000002027661
        0.000000002311179
       -0.000000434527592
       -0.000000662690677
        0.000000681015919
        0.000000379478568
       -0.000000014235282
        0.000000000000000
        0.000000000000000
        0.000000000000000
        0.000000005810372
        0.000000014483763
        0.000000031035293
       -0.000000028611518
       -0.000000011336265
       -0.000000000144732
        0.000000000000000
        0.000000000000000
        0.000000000000000
        0.000000000000000
        0.000000000000000
        0.000000003844676
       -0.000000002472353
        0.000000000000000
        0.000000000000000
        0.000000000000000
        0.000000000000000
        0.000000000000000
        0.000000000000000
        0.000000000000000
        0.000000000000000
        0.000000000000000
        0.000000000000000
        0.000000000000000
        0.000000000000000
        0.000000000000000
        0.000000000000000
       -0.000000004781453
       -0.000000001680718
        0.000000003123884
        0.000000006593442
        0.000000000000000
        0.000000000000000
        0.000000000000000
        0.000000000000000
       -0.000000002184889
        0.000000022566665
        0.000000037290869
       -0.000000043447825
       -0.000000007045670
        0.000000009619964
        0.000000000000000
        0.000000000000000
        0.000000000000000
       -0.000000002084880
        0.000000019163881
        0.000000249511520
        0.000000073299540
       -0.000000119484419
       -0.000000002219850
        0.000000002349988
        0.000000000000000
        0.000000000000000
        0.000000004936140
       -0.000000046870906
        0.000000092118014
        0.000000263480098
        0.000000093712970
       -0.000000047342123
        0.000000004951692
        0.000000000000000
        0.000000000000000
        0.000000002328989
       -0.000000002013458
       -0.000000118835305
        0.000000071723681
        0.000000250934450
        0.000000019442790
       -0.000000002121751
        0.000000000000000
        0.000000000000000
        0.000000000000000
        0.000000009565981
       -0.000000006820492
       -0.000000043567207
        0.000000036915217
        0.000000022814085
       -0.000000002197710
        0.000000000000000
        0.000000000000000
        0.000000000000000
        0.000000000000000
        0.000000006565430
        0.000000003129855
       -0.000000001679137
       -0.000000004804232
        0.000000000000000
        0.000000000000000
        0.000000000000000
        0.000000000000000
        0.000000000000000
        0.000000000000000
        0.000000000000000
        0.000000000000000
        0.000000000000000
        0.000000000000000
        0.000000000000000
        0.000000000000000
        0.000000000000000
        0.000000000000000
        0.000000000000000
        0.000000000000000
        0.000000000000000
        0.000000000000000
        0.000000000000000
        0.000000000000000
        0.000000000000000
        0.000000000000000
        0.000000000000000
       -0.000000001864177
        0.000000002073616
        0.000000000000000
        0.000000000000000
        0.000000000000000
        0.000000000000000
        0.000000000000000
        0.000000000000000
       -0.000000002797406
       -0.000000002974004
        0.000000004328762
        0.000000004580288
        0.000000000000000
        0.000000000000000
        0.000000000000000
        0.000000000000000
        0.000000000047844
       -0.000000003951663
        0.000000000222400
       -0.000000000843698
        0.000000008475683
        0.000000003240016
        0.000000000000000
        0.000000000000000
        0.000000000000000
        0.000000000047844
        0.000000005668643
       -0.000000001621888
        0.000000000800888
       -0.000000001638840
        0.000000005681736
        0.000000000047580
        0.000000000000000
        0.000000000000000
        0.000000000000000
        0.000000003225999
        0.000000008461368
       -0.000000000860875
        0.000000000211287
       -0.000000003975078
        0.000000000047580
        0.000000000000000
        0.000000000000000
        0.000000000000000
        0.000000000000000
        0.000000004567429
        0.000000004329468
       -0.000000002975881
       -0.000000002807074
        0.000000000000000
        0.000000000000000
        0.000000000000000
        0.000000000000000
        0.000000000000000
        0.000000000000000
        0.000000002075039
       -0.000000001863945
        0.000000000000000
        0.000000000000000
        0.000000000000000
        0.000000000000000
        0.000000000000000
        0.000000000000000
        0.000000000000000
        0.000000000000000
        0.000000000000000
        0.000000000000000
        0.000000000000000
        0.000000000000000
        0.000000000000000
        0.000000000000000
        0.000000000000000
        0.000000000000000
        0.000000000000000
        0.000000000000000
        0.000000000000000
        0.000000000000000
        0.000000000000000
        0.000000000000000
        0.000000000000000
        0.000000000000000
        0.000000000000000
        0.000000000000000
        0.000000000000000
        0.000000000000000
        0.000000000000000
        0.000000000000000
        0.000000000000000
        0.000000000000000
        0.000000000000000
        0.000000000000000
        0.000000000000000
        0.000000000000000
        0.000000000000000
        0.000000000000000
        0.000000000000000
        0.000000000000000
        0.000000000000000
        0.000000000000000
        0.000000000071399
        0.000000001387385
        0.000000000000000
        0.000000000000000
        0.000000000000000
        0.000000000000000
        0.000000000000000
        0.000000000000000
        0.000000000000000
        0.000000000071399
        0.000000004122874
        0.000000000072777
        0.000000000000000
        0.000000000000000
        0.000000000000000
        0.000000000000000
        0.000000000000000
        0.000000000000000
        0.000000000000000
        0.000000001387434
        0.000000000072777
        0.000000000000000
        0.000000000000000
        0.000000000000000
        0.000000000000000
        0.000000000000000
        0.000000000000000
        0.000000000000000
        0.000000000000000
        0.000000000000000
        0.000000000000000
        0.000000000000000
        0.000000000000000
        0.000000000000000
        0.000000000000000
        0.000000000000000
        0.000000000000000
        0.000000000000000
        0.000000000000000
        0.000000000000000
        0.000000000000000
        0.000000000000000
        0.000000000000000
        0.000000000000000
        0.000000000000000
        0.000000000000000
        0.000000000000000
        0.000000000000000
        0.000000000000000
        0.000000000000000
        0.000000000000000
END_DATAGRID_3D
END_BLOCK_DATAGRID_3D
