ATOMS
         C    7.558905    7.558905    7.558905
         H    8.755769    8.755769    8.755769
         H    6.362040    6.362040    8.755769
         H    8.755769    6.362040    6.362040
         H    6.362040    8.755769    6.362040
BEGIN_BLOCK_DATAGRID_3D
units: coords = b, function = sqrt(b^-3)
BEGIN_DATAGRID_3D_function
      9      9      9
0.0 0.0 0.0
   15.117809    0.000000    0.000000
    0.000000   15.117809    0.000000
    0.000000    0.000000   15.117809
        0.000000000000000
        0.000000000000000
        0.000000000000000
        0.000000000000000
        0.000000000000000
        0.000000000000000
        0.000000000000000
        0.000000000000000
        0.000000000000000
        0.000000000000000
        0.000000000000000
        0.000000000000000
        0.000000000000000
        0.000000000000000
        0.000000000000000
        0.000000000000000
        0.000000000000000
        0.000000000000000
        0.000000000000000
        0.000000000000000
        0.000000000000000
        0.000000000000000
        0.000000000000000
        0.000000000000000
        0.000000000000000
        0.000000000000000
        0.000000000000000
        0.000000000000000
        0.000000000000000
        0.000000000000000
        0.000000000000000
        0.000637965875925
        0.000444188617035
        0.000000000000000
        0.000000000000000
        0.000000000000000
        0.000000000000000
        0.000000000000000
        0.000000000000000
        0.001022237380838
        0.001277473396448
        0.000692071955461
        0.000000000000000
        0.000000000000000
        0.000000000000000
        0.000000000000000
        0.000000000000000
        0.000000000000000
        0.001018152467602
        0.001076027766973
        0.000000000000000
        0.000000000000000
        0.000000000000000
        0.000000000000000
        0.000000000000000
        0.000000000000000
        0.000000000000000
        0.000000000000000
        0.000000000000000
        0.000000000000000
        0.000000000000000
        0.000000000000000
        0.000000000000000
        0.000000000000000
        0.000000000000000
        0.000000000000000
        0.000000000000000
        0.000000000000000
        0.000000000000000
        0.000000000000000
        0.000000000000000
        0.000000000000000
        0.000000000000000
        0.000000000000000
        0.000000000000000
        0.000000000000000
        0.000000000000000
        0.000000000000000
        0.000000000000000
        0.000000000000000
        0.000000000000000
        0.000000000000000
        0.000000000000000
        0.000000000000000
        0.000000000000000
        0.000000000000000
        0.000000000000000
        0.000000000000000
        0.000000000000000
        0.000000000000000
        0.000000000000000
        0.000000000000000
        0.000000000000000
        0.000000000000000
        0.000020108793048
       -0.000036880765507
        0.000000000000000
        0.000000000000000
        0.000000000000000
        0.000000000000000
        0.000000000000000
        0.000000000000000
        0.000732677698762
        0.000798283746851
        0.000344997288882
        0.000038808828220
        0.000000000000000
        0.000000000000000
        0.000000000000000
        0.000000000000000
        0.001526842642500
        0.003206471483828
        0.003636816527553
        0.002008886781206
        0.000543142339492
        0.000072046665106
        0.000000000000000
        0.000000000000000
        0.000936017392624
        0.003293709105498
        0.006676054250427
        0.007413139632220
        0.004193405130287
        0.001281267735868
        0.000195981161565
        0.000000000000000
        0.000000000000000
        0.000990051490313
        0.003486891692408
        0.006838740186886
        0.007226774757818
        0.003974749320611
        0.001175262675530
        0.000000000000000
        0.000000000000000
        0.000000000000000
        0.000000000000000
        0.001832358967396
        0.003679085527466
        0.003767446649078
        0.001965607683654
        0.000000000000000
        0.000000000000000
        0.000000000000000
        0.000000000000000
        0.000000000000000
        0.000000000000000
        0.001094810547607
        0.001107624248938
        0.000000000000000
        0.000000000000000
        0.000000000000000
        0.000000000000000
        0.000000000000000
        0.000000000000000
        0.000000000000000
        0.000000000000000
        0.000000000000000
        0.000000000000000
        0.000000000000000
        0.000000000000000
        0.000000000000000
        0.000000000000000
        0.000000000000000
        0.000000000000000
        0.000000000000000
        0.000000000000000
        0.000000000000000
        0.000000000000000
        0.000000000000000
        0.000000000000000
        0.000000000000000
        0.000000000000000
        0.000000000000000
       -0.000225979703515
       -0.000570902446819
       -0.000669668592451
       -0.000387804030203
        0.000000000000000
        0.000000000000000
        0.000000000000000
        0.000000000000000
        0.000746761055813
        0.001195897645286
        0.000442441648335
       -0.000851566991454
       -0.000783551834924
       -0.000288307441988
        0.000000000000000
        0.000000000000000
        0.001230675072695
        0.004655573211489
        0.009967199244088
        0.010762828471188
        0.003356734205293
        0.000055908724283
       -0.000234328971083
        0.000000000000000
        0.000000000000000
        0.002872105114489
        0.011426703718051
        0.028349408388880
        0.033950981901183
        0.014411641845840
        0.002860921144729
        0.000233087657505
        0.000000000000000
        0.000000000000000
        0.003175997936343
        0.012749717389129
        0.030876677602151
        0.031976670566616
        0.014253058485292
        0.003521658084211
        0.000441906888830
        0.000000000000000
        0.000000000000000
        0.001702492184994
        0.006544472173823
        0.013643471945692
        0.013814850065275
        0.006965847468699
        0.001849728851480
        0.000000000000000
        0.000000000000000
        0.000000000000000
        0.000000000000000
        0.001797941175809
        0.003597598345278
        0.003658036028704
        0.001889310462466
        0.000000000000000
        0.000000000000000
        0.000000000000000
        0.000000000000000
        0.000000000000000
        0.000000000000000
        0.000000000000000
        0.000000000000000
        0.000000000000000
        0.000000000000000
        0.000000000000000
        0.000000000000000
        0.000000000000000
        0.000000000000000
        0.000000000000000
        0.000000000000000
       -0.000552221071018
       -0.000492244743084
        0.000000000000000
        0.000000000000000
        0.000000000000000
        0.000000000000000
        0.000000000000000
       -0.000584691401935
       -0.001758948291082
       -0.003001724333350
       -0.002668215600944
       -0.001328663504946
       -0.000397811702259
        0.000000000000000
        0.000000000000000
        0.000077440715247
       -0.000363968712715
       -0.003129840608354
       -0.008134684068464
       -0.008323825375593
       -0.003861260002429
       -0.001091670355603
        0.000000000000000
        0.000000000000000
        0.001668644666539
        0.005899927978454
        0.011374258601146
        0.004113349606991
       -0.010846705449082
       -0.005614574330876
       -0.001577633283673
       -0.000272968061103
        0.000656143799019
        0.004626977499187
        0.022479102958439
        0.072752264086943
        0.090072156284872
        0.021353595535784
       -0.000095018547894
       -0.000893184831467
       -0.000219438313209
        0.000731696341638
        0.005400631317484
        0.027243992287657
        0.090198416271030
        0.089924570100812
        0.028351901001188
        0.004209931669713
        0.000174584686971
        0.000000000000000
        0.000000000000000
        0.003106427383517
        0.012433833442666
        0.029939883999108
        0.030466948987332
        0.013210974623426
        0.003124414245757
        0.000351160584601
        0.000000000000000
        0.000000000000000
        0.000951930290390
        0.003335814360415
        0.006463216946981
        0.006696360586454
        0.003580018247789
        0.001008182339208
        0.000000000000000
        0.000000000000000
        0.000000000000000
        0.000000000000000
        0.000000000000000
        0.000943041882264
        0.000980753587600
        0.000000000000000
        0.000000000000000
        0.000000000000000
        0.000000000000000
        0.000000000000000
        0.000000000000000
        0.000000000000000
       -0.000726664794339
       -0.001088099427875
       -0.000732971616908
        0.000000000000000
        0.000000000000000
        0.000000000000000
        0.000000000000000
       -0.000393721674191
       -0.001700084075966
       -0.004379154576115
       -0.006313272401398
       -0.004870303495866
       -0.002184410545009
       -0.000564415021084
        0.000000000000000
        0.000000000000000
       -0.000754424887487
       -0.004520745938541
       -0.016088992689900
       -0.028905098051415
       -0.020280692475647
       -0.007598705343442
       -0.001864097835804
        0.000000000000000
        0.000096378930117
        0.000204457487566
       -0.003055330051701
       -0.026888601362459
       -0.076676838899684
       -0.053044945948833
       -0.015889374398045
       -0.003319247879971
       -0.000453740240792
        0.000547121343190
        0.003161900639260
        0.014415710128629
        0.038233215366353
       -0.000039070754281
       -0.037997628194004
       -0.014318932387019
       -0.003112606256662
       -0.000534028546506
        0.000637127925718
        0.004429950838346
        0.021208710921831
        0.066799263901300
        0.076754532070928
        0.013415250952617
       -0.002122197943791
       -0.001240842488368
       -0.000263248053663
        0.000000000000000
        0.002701934947007
        0.010583660618224
        0.025569261350213
        0.028930640521893
        0.010875112160912
        0.001598003328544
       -0.000052132626850
        0.000000000000000
        0.000000000000000
        0.000874359457687
        0.003014058564937
        0.005948502535681
        0.006316755009957
        0.003314777989214
        0.000886447984772
        0.000091349364865
        0.000000000000000
        0.000000000000000
        0.000000000000000
        0.000000000000000
        0.000907986262731
        0.001088547415068
        0.000552885431140
        0.000000000000000
        0.000000000000000
        0.000000000000000
        0.000000000000000
        0.000000000000000
        0.000000000000000
       -0.000752919751455
       -0.000907778644533
        0.000000000000000
        0.000000000000000
        0.000000000000000
        0.000000000000000
        0.000000000000000
       -0.000501655450970
       -0.002094075218089
       -0.004861100911685
       -0.006249770771361
       -0.004351530389499
       -0.001709709344317
        0.000000000000000
        0.000000000000000
        0.000000000000000
       -0.001393405657849
       -0.007009072552016
       -0.020796680151117
       -0.028253541393478
       -0.017466453312137
       -0.006563457636486
       -0.001485103676738
        0.000000000000000
       -0.000106311420813
       -0.001631358357234
       -0.012726633175138
       -0.056591680660820
       -0.084135641270854
       -0.045088384388289
       -0.014412180482359
       -0.003189898732324
        0.000000000000000
        0.000077363056816
        0.000007430826725
       -0.004325722088308
       -0.032841601548101
       -0.089994463113626
       -0.060983290531999
       -0.017916553793942
       -0.003666905536872
       -0.000497549981247
        0.000000000000000
        0.001395564996128
        0.004399834886341
        0.005497138133249
       -0.009776731051882
       -0.022525331574483
       -0.008787476695855
       -0.002130776738301
       -0.000338455112222
        0.000000000000000
        0.001074446817227
        0.003842270045435
        0.007424892752072
        0.005955418313990
       -0.000751483352769
       -0.001509076324812
       -0.000593741850448
        0.000000000000000
        0.000000000000000
        0.000000000000000
        0.001294242681337
        0.002538294996593
        0.002560687639937
        0.001079309360804
        0.000101938391848
       -0.000045324150815
        0.000000000000000
        0.000000000000000
        0.000000000000000
        0.000000000000000
        0.000000000000000
        0.000479798799360
        0.000303288950410
        0.000000000000000
        0.000000000000000
        0.000000000000000
        0.000000000000000
        0.000000000000000
        0.000000000000000
        0.000000000000000
        0.000000000000000
        0.000000000000000
        0.000000000000000
        0.000000000000000
        0.000000000000000
        0.000000000000000
        0.000000000000000
       -0.001202296554530
       -0.002755131600619
       -0.003317281306970
       -0.002070512967904
        0.000000000000000
        0.000000000000000
        0.000000000000000
        0.000000000000000
       -0.000907919126593
       -0.004107567241256
       -0.010031250280136
       -0.012580825816102
       -0.008133941812957
       -0.002944536472234
        0.000000000000000
        0.000000000000000
        0.000000000000000
       -0.001462976210675
       -0.007324956498479
       -0.021733473754159
       -0.029763262972762
       -0.018508537174003
       -0.006960701474941
       -0.001575849980967
        0.000000000000000
        0.000000000000000
       -0.000924595054968
       -0.005363789038368
       -0.018869139728567
       -0.033925439430704
       -0.023817222160575
       -0.008861623159627
       -0.002149318120158
        0.000000000000000
        0.000000000000000
       -0.000078787540222
       -0.001177271878769
       -0.005672147100369
       -0.012942094225662
       -0.012432042933654
       -0.005426245051524
       -0.001451083234969
        0.000000000000000
        0.000000000000000
        0.000000000000000
        0.000360326909235
       -0.000015167066382
       -0.001664728961199
       -0.002732734993582
       -0.001626233189919
       -0.000493713310573
        0.000000000000000
        0.000000000000000
        0.000000000000000
        0.000000000000000
        0.000409115023050
        0.000232684063695
       -0.000166171649904
       -0.000201240965721
        0.000000000000000
        0.000000000000000
        0.000000000000000
        0.000000000000000
        0.000000000000000
        0.000000000000000
        0.000000000000000
        0.000000000000000
        0.000000000000000
        0.000000000000000
        0.000000000000000
        0.000000000000000
        0.000000000000000
        0.000000000000000
        0.000000000000000
        0.000000000000000
        0.000000000000000
        0.000000000000000
        0.000000000000000
        0.000000000000000
        0.000000000000000
        0.000000000000000
        0.000000000000000
       -0.000863877497587
       -0.000980715428452
        0.000000000000000
        0.000000000000000
        0.000000000000000
        0.000000000000000
        0.000000000000000
        0.000000000000000
       -0.001236714346117
       -0.002836618782807
       -0.003426691927344
       -0.002146810189092
        0.000000000000000
        0.000000000000000
        0.000000000000000
        0.000000000000000
       -0.000539776650894
       -0.002245152550082
       -0.005236624151589
       -0.006780184942726
       -0.004746261462321
       -0.001876789680639
        0.000000000000000
        0.000000000000000
        0.000000000000000
       -0.000455379609129
       -0.001979734616526
       -0.005106706290861
       -0.007409657023661
       -0.005748930636940
       -0.002579230296105
       -0.000669046817783
        0.000000000000000
        0.000000000000000
        0.000000000000000
       -0.000817291363097
       -0.002427124778318
       -0.004077853220966
       -0.003597793021345
       -0.001769867452590
       -0.000515182518181
        0.000000000000000
        0.000000000000000
        0.000000000000000
        0.000000000000000
       -0.000549542379226
       -0.001136502129974
       -0.001180837531236
       -0.000627853824144
        0.000000000000000
        0.000000000000000
        0.000000000000000
        0.000000000000000
        0.000000000000000
        0.000000000000000
       -0.000146376420413
       -0.000192646873151
        0.000000000000000
        0.000000000000000
        0.000000000000000
        0.000000000000000
        0.000000000000000
        0.000000000000000
        0.000000000000000
        0.000000000000000
        0.000000000000000
        0.000000000000000
        0.000000000000000
        0.000000000000000
        0.000000000000000
        0.000000000000000
        0.000000000000000
        0.000000000000000
        0.000000000000000
        0.000000000000000
        0.000000000000000
        0.000000000000000
        0.000000000000000
        0.000000000000000
        0.000000000000000
        0.000000000000000
        0.000000000000000
        0.000000000000000
        0.000000000000000
        0.000000000000000
        0.000000000000000
        0.000000000000000
        0.000000000000000
        0.000000000000000
        0.000000000000000
        0.000000000000000
        0.000000000000000
        0.000000000000000
        0.000000000000000
        0.000000000000000
        0.000000000000000
        0.000000000000000
        0.000000000000000
        0.000000000000000
       -0.000828030336792
       -0.001003052823905
        0.000000000000000
        0.000000000000000
        0.000000000000000
        0.000000000000000
        0.000000000000000
        0.000000000000000
        0.000000000000000
       -0.000840915912446
       -0.001277025409255
       -0.000872158141229
        0.000000000000000
        0.000000000000000
        0.000000000000000
        0.000000000000000
        0.000000000000000
        0.000000000000000
        0.000000000000000
       -0.000710388147582
       -0.000633144409708
        0.000000000000000
        0.000000000000000
        0.000000000000000
        0.000000000000000
        0.000000000000000
        0.000000000000000
        0.000000000000000
        0.000000000000000
        0.000000000000000
        0.000000000000000
        0.000000000000000
        0.000000000000000
        0.000000000000000
        0.000000000000000
        0.000000000000000
        0.000000000000000
        0.000000000000000
        0.000000000000000
        0.000000000000000
        0.000000000000000
        0.000000000000000
        0.000000000000000
        0.000000000000000
        0.000000000000000
        0.000000000000000
        0.000000000000000
        0.000000000000000
        0.000000000000000
        0.000000000000000
        0.000000000000000
END_DATAGRID_3D
END_BLOCK_DATAGRID_3D
