ATOMS
         C    7.558905    7.558905    7.558905
         H    8.755769    8.755769    8.755769
         H    6.362040    6.362040    8.755769
         H    8.755769    6.362040    6.362040
         H    6.362040    8.755769    6.362040
BEGIN_BLOCK_DATAGRID_3D
units: coords = b, function = sqrt(b^-3)
BEGIN_DATAGRID_3D_function
      9      9      9
0.0 0.0 0.0
   15.117809    0.000000    0.000000
    0.000000   15.117809    0.000000
    0.000000    0.000000   15.117809
        0.000000000000000
        0.000000000000000
        0.000000000000000
        0.000000000000000
        0.000000000000000
        0.000000000000000
        0.000000000000000
        0.000000000000000
        0.000000000000000
        0.000000000000000
        0.000000000000000
        0.000000000000000
        0.000000000000000
        0.000000000000000
        0.000000000000000
        0.000000000000000
        0.000000000000000
        0.000000000000000
        0.000000000000000
        0.000000000000000
        0.000000000000000
        0.000000000000000
        0.000000000000000
        0.000000000000000
        0.000000000000000
        0.000000000000000
        0.000000000000000
        0.000000000000000
        0.000000000000000
        0.000000000000000
        0.000000000000000
       -0.000082628029332
        0.000031134302965
        0.000000000000000
        0.000000000000000
        0.000000000000000
        0.000000000000000
        0.000000000000000
        0.000000000000000
       -0.000180908734858
       -0.000076420389749
        0.000080265848103
        0.000000000000000
        0.000000000000000
        0.000000000000000
        0.000000000000000
        0.000000000000000
        0.000000000000000
       -0.000117533642853
       -0.000020241105752
        0.000000000000000
        0.000000000000000
        0.000000000000000
        0.000000000000000
        0.000000000000000
        0.000000000000000
        0.000000000000000
        0.000000000000000
        0.000000000000000
        0.000000000000000
        0.000000000000000
        0.000000000000000
        0.000000000000000
        0.000000000000000
        0.000000000000000
        0.000000000000000
        0.000000000000000
        0.000000000000000
        0.000000000000000
        0.000000000000000
        0.000000000000000
        0.000000000000000
        0.000000000000000
        0.000000000000000
        0.000000000000000
        0.000000000000000
        0.000000000000000
        0.000000000000000
        0.000000000000000
        0.000000000000000
        0.000000000000000
        0.000000000000000
        0.000000000000000
        0.000000000000000
        0.000000000000000
        0.000000000000000
        0.000000000000000
        0.000000000000000
        0.000000000000000
        0.000000000000000
        0.000000000000000
        0.000000000000000
        0.000000000000000
        0.000000000000000
       -0.000178069476660
       -0.000061361453288
        0.000000000000000
        0.000000000000000
        0.000000000000000
        0.000000000000000
        0.000000000000000
        0.000000000000000
       -0.000638959684455
       -0.000538275240175
       -0.000008680200723
        0.000180612248869
        0.000000000000000
        0.000000000000000
        0.000000000000000
        0.000000000000000
       -0.000835768922188
       -0.001367298983425
       -0.000770444628521
        0.000366875020993
        0.000595296054176
        0.000271360798180
        0.000000000000000
        0.000000000000000
       -0.000404622153338
       -0.001165379675651
       -0.001547063794654
       -0.000445348680371
        0.000917155913562
        0.000929341110542
        0.000357386089242
        0.000000000000000
        0.000000000000000
       -0.000318839380986
       -0.000810714531161
       -0.000885886332901
        0.000118421649945
        0.000957285186922
        0.000700517701004
        0.000000000000000
        0.000000000000000
        0.000000000000000
        0.000000000000000
       -0.000284299767993
       -0.000230344797093
        0.000264447015323
        0.000486275417406
        0.000000000000000
        0.000000000000000
        0.000000000000000
        0.000000000000000
        0.000000000000000
        0.000000000000000
       -0.000002514351847
        0.000110150080176
        0.000000000000000
        0.000000000000000
        0.000000000000000
        0.000000000000000
        0.000000000000000
        0.000000000000000
        0.000000000000000
        0.000000000000000
        0.000000000000000
        0.000000000000000
        0.000000000000000
        0.000000000000000
        0.000000000000000
        0.000000000000000
        0.000000000000000
        0.000000000000000
        0.000000000000000
        0.000000000000000
        0.000000000000000
        0.000000000000000
        0.000000000000000
        0.000000000000000
        0.000000000000000
        0.000000000000000
        0.000000000000000
       -0.000848572232842
       -0.000840815317118
       -0.000235526999859
        0.000084196039415
        0.000000000000000
        0.000000000000000
        0.000000000000000
        0.000000000000000
       -0.001700990869738
       -0.003244400478706
       -0.002604880390360
        0.000037969264477
        0.000797227216241
        0.000387278907976
        0.000000000000000
        0.000000000000000
       -0.001201441221516
       -0.004098248000945
       -0.007084046493542
       -0.004433608318244
        0.002583276389911
        0.002790135956881
        0.001087026019799
        0.000000000000000
        0.000000000000000
       -0.001688960592810
       -0.005366012846651
       -0.008940426131474
       -0.002044254595933
        0.006503663682769
        0.004692282255710
        0.001592428466876
        0.000000000000000
        0.000000000000000
       -0.001200226049597
       -0.003443036652568
       -0.004577896138700
        0.001859818631264
        0.005740772863168
        0.003749563785021
        0.001164298096643
        0.000000000000000
        0.000000000000000
       -0.000448907905698
       -0.001106554909853
       -0.000798388345194
        0.001746813622738
        0.002807440681999
        0.001602423449485
        0.000000000000000
        0.000000000000000
        0.000000000000000
        0.000000000000000
       -0.000164121268943
        0.000057327704540
        0.000655271251918
        0.000761685152956
        0.000000000000000
        0.000000000000000
        0.000000000000000
        0.000000000000000
        0.000000000000000
        0.000000000000000
        0.000000000000000
        0.000000000000000
        0.000000000000000
        0.000000000000000
        0.000000000000000
        0.000000000000000
        0.000000000000000
        0.000000000000000
        0.000000000000000
        0.000000000000000
       -0.000346121007823
       -0.000177940205114
        0.000000000000000
        0.000000000000000
        0.000000000000000
        0.000000000000000
        0.000000000000000
       -0.001291923556132
       -0.002451843454022
       -0.002237480312070
       -0.000678712059311
        0.000172012199414
        0.000163896826687
        0.000000000000000
        0.000000000000000
       -0.001447609089846
       -0.005181992828411
       -0.009945968885820
       -0.008609798032745
       -0.000026847660588
        0.001904487936886
        0.000890916835676
        0.000000000000000
        0.000000000000000
       -0.003274878352257
       -0.012164564372103
       -0.026211977925549
       -0.019445002586450
        0.010886718568475
        0.008151715381437
        0.002617717744969
        0.000484055509125
       -0.000637501214669
       -0.004105252654223
       -0.016306807798368
       -0.037057702297685
       -0.005442029337904
        0.031940420794311
        0.015514627024056
        0.004112285058719
        0.000656126868217
       -0.000477576756068
       -0.002696877927433
       -0.009148608088201
       -0.015467071563840
        0.013742126669672
        0.024228255303509
        0.011990560046027
        0.003343446201063
        0.000000000000000
        0.000000000000000
       -0.000960271137115
       -0.002340499054617
       -0.001269124058581
        0.007251994868892
        0.009504677070549
        0.005201500721315
        0.001499701914793
        0.000000000000000
        0.000000000000000
       -0.000187341729915
       -0.000283506697716
        0.000439897357724
        0.002012897815733
        0.002383645775516
        0.001310856380933
        0.000000000000000
        0.000000000000000
        0.000000000000000
        0.000000000000000
        0.000000000000000
        0.000147990523821
        0.000319435146498
        0.000000000000000
        0.000000000000000
        0.000000000000000
        0.000000000000000
        0.000000000000000
        0.000000000000000
        0.000000000000000
       -0.000563445265385
       -0.000599090396352
       -0.000237847200978
        0.000000000000000
        0.000000000000000
        0.000000000000000
        0.000000000000000
       -0.000688473836319
       -0.002243339738195
       -0.003961509044822
       -0.003478502284509
       -0.001109194495721
        0.000145632911356
        0.000183555983748
        0.000000000000000
        0.000000000000000
       -0.002462588361121
       -0.008810094647782
       -0.018653571645606
       -0.015934251492276
       -0.001245601236515
        0.002327509225121
        0.001112683112050
        0.000000000000000
       -0.000755922201982
       -0.005047149506774
       -0.021830438450863
       -0.058863798654476
       -0.042290833471817
        0.015346375927489
        0.011947493926048
        0.003556611672676
        0.000602298506598
       -0.000989615987073
       -0.005779020589804
       -0.026790895411504
       -0.071734908906137
       -0.000242220634093
        0.072764217186083
        0.027679848727398
        0.006115948951312
        0.001060044657038
       -0.000572206971292
       -0.003426599428086
       -0.011867863253590
       -0.015992009179653
        0.042125546019950
        0.060570104425673
        0.022909987716825
        0.005400069540379
        0.000819470451927
        0.000000000000000
       -0.001102067343761
       -0.002423413695006
        0.000882990034593
        0.015887449820980
        0.019273863953007
        0.009307025438451
        0.002647265143204
        0.000000000000000
        0.000000000000000
       -0.000191828682832
       -0.000189482675688
        0.001021404414653
        0.003470875164482
        0.004092371101461
        0.002372716490571
        0.000744100333047
        0.000000000000000
        0.000000000000000
        0.000000000000000
        0.000000000000000
        0.000223046445903
        0.000598486660459
        0.000582511651557
        0.000000000000000
        0.000000000000000
        0.000000000000000
        0.000000000000000
        0.000000000000000
        0.000000000000000
       -0.000504891789810
       -0.000457860921105
        0.000000000000000
        0.000000000000000
        0.000000000000000
        0.000000000000000
        0.000000000000000
       -0.000637275173834
       -0.002015318264808
       -0.003441238566610
       -0.002859637359513
       -0.000904013321287
        0.000048624849710
        0.000000000000000
        0.000000000000000
        0.000000000000000
       -0.002174731005435
       -0.007711554739251
       -0.015867675327587
       -0.011447058404431
       -0.001346275168515
        0.001468841661736
        0.000723881846340
        0.000000000000000
       -0.000654649049629
       -0.004194520932906
       -0.017799807177925
       -0.047557989818453
       -0.024702176948703
        0.007840989574458
        0.007779955773665
        0.002573836746487
        0.000000000000000
       -0.000690627958604
       -0.004368496280637
       -0.017391493906084
       -0.037798105536444
        0.005276741886037
        0.043976059558851
        0.019342854618818
        0.004844396154336
        0.000765642090308
        0.000000000000000
       -0.002333005100854
       -0.006929101937942
       -0.005423736115406
        0.030193171203736
        0.053049627076806
        0.019720654702848
        0.004666645281723
        0.000728510444825
        0.000000000000000
       -0.000662128291409
       -0.001260231748484
        0.001896639769598
        0.012741199391137
        0.017424032444140
        0.008506909525725
        0.002416588426530
        0.000000000000000
        0.000000000000000
        0.000000000000000
       -0.000023431544943
        0.000991797520211
        0.003073271412449
        0.003726059172601
        0.002208375756870
        0.000705144617113
        0.000000000000000
        0.000000000000000
        0.000000000000000
        0.000000000000000
        0.000000000000000
        0.000483301084346
        0.000539598284499
        0.000000000000000
        0.000000000000000
        0.000000000000000
        0.000000000000000
        0.000000000000000
        0.000000000000000
        0.000000000000000
        0.000000000000000
        0.000000000000000
        0.000000000000000
        0.000000000000000
        0.000000000000000
        0.000000000000000
        0.000000000000000
       -0.000939866439628
       -0.001635645075254
       -0.001301040317516
       -0.000415097017963
        0.000000000000000
        0.000000000000000
        0.000000000000000
        0.000000000000000
       -0.001006079076354
       -0.003406294749539
       -0.005969546186569
       -0.004085825336189
       -0.000567554951900
        0.000519112266770
        0.000000000000000
        0.000000000000000
        0.000000000000000
       -0.001934776092954
       -0.006609017141300
       -0.012558903247468
       -0.006054882166803
        0.002417629038865
        0.002920778598031
        0.001059285664491
        0.000000000000000
        0.000000000000000
       -0.001875695112073
       -0.005867495496138
       -0.008830155479540
        0.001997452924637
        0.011524599033724
        0.006942252407862
        0.002167519788377
        0.000000000000000
        0.000000000000000
       -0.000908296159739
       -0.002343976575950
       -0.000965282622680
        0.008565009676635
        0.014813908393641
        0.007621261505729
        0.002220479242407
        0.000000000000000
        0.000000000000000
        0.000000000000000
       -0.000351388198587
        0.001032064576636
        0.004921898602297
        0.006835394505449
        0.003877367196888
        0.001146526397144
        0.000000000000000
        0.000000000000000
        0.000000000000000
        0.000000000000000
        0.000504557049988
        0.001482064686957
        0.001838503010434
        0.001057517724433
        0.000000000000000
        0.000000000000000
        0.000000000000000
        0.000000000000000
        0.000000000000000
        0.000000000000000
        0.000000000000000
        0.000000000000000
        0.000000000000000
        0.000000000000000
        0.000000000000000
        0.000000000000000
        0.000000000000000
        0.000000000000000
        0.000000000000000
        0.000000000000000
        0.000000000000000
        0.000000000000000
        0.000000000000000
        0.000000000000000
        0.000000000000000
        0.000000000000000
        0.000000000000000
       -0.000430856145097
       -0.000350616387419
        0.000000000000000
        0.000000000000000
        0.000000000000000
        0.000000000000000
        0.000000000000000
        0.000000000000000
       -0.000819687940578
       -0.001347972573622
       -0.000910216080921
       -0.000139687282413
        0.000000000000000
        0.000000000000000
        0.000000000000000
        0.000000000000000
       -0.000505777522763
       -0.001488110431363
       -0.002115454875984
       -0.000965161193726
        0.000522347267307
        0.000658963529640
        0.000000000000000
        0.000000000000000
        0.000000000000000
       -0.000475680365813
       -0.001267442738231
       -0.001393040835516
        0.000437721560344
        0.002066020692177
        0.001589008291384
        0.000570270227554
        0.000000000000000
        0.000000000000000
        0.000000000000000
       -0.000479586178887
       -0.000092746950386
        0.001606235728899
        0.002680472092297
        0.001785091902108
        0.000597680645620
        0.000000000000000
        0.000000000000000
        0.000000000000000
        0.000000000000000
        0.000294944501600
        0.001179524610014
        0.001611656211298
        0.000961101514979
        0.000000000000000
        0.000000000000000
        0.000000000000000
        0.000000000000000
        0.000000000000000
        0.000000000000000
        0.000417509016365
        0.000500815459444
        0.000000000000000
        0.000000000000000
        0.000000000000000
        0.000000000000000
        0.000000000000000
        0.000000000000000
        0.000000000000000
        0.000000000000000
        0.000000000000000
        0.000000000000000
        0.000000000000000
        0.000000000000000
        0.000000000000000
        0.000000000000000
        0.000000000000000
        0.000000000000000
        0.000000000000000
        0.000000000000000
        0.000000000000000
        0.000000000000000
        0.000000000000000
        0.000000000000000
        0.000000000000000
        0.000000000000000
        0.000000000000000
        0.000000000000000
        0.000000000000000
        0.000000000000000
        0.000000000000000
        0.000000000000000
        0.000000000000000
        0.000000000000000
        0.000000000000000
        0.000000000000000
        0.000000000000000
        0.000000000000000
        0.000000000000000
        0.000000000000000
        0.000000000000000
        0.000000000000000
        0.000000000000000
        0.000000000000000
       -0.000239367623135
       -0.000118184668854
        0.000000000000000
        0.000000000000000
        0.000000000000000
        0.000000000000000
        0.000000000000000
        0.000000000000000
        0.000000000000000
       -0.000159490084623
        0.000075816653856
        0.000264398602476
        0.000000000000000
        0.000000000000000
        0.000000000000000
        0.000000000000000
        0.000000000000000
        0.000000000000000
        0.000000000000000
        0.000219808105855
        0.000330523776420
        0.000000000000000
        0.000000000000000
        0.000000000000000
        0.000000000000000
        0.000000000000000
        0.000000000000000
        0.000000000000000
        0.000000000000000
        0.000000000000000
        0.000000000000000
        0.000000000000000
        0.000000000000000
        0.000000000000000
        0.000000000000000
        0.000000000000000
        0.000000000000000
        0.000000000000000
        0.000000000000000
        0.000000000000000
        0.000000000000000
        0.000000000000000
        0.000000000000000
        0.000000000000000
        0.000000000000000
        0.000000000000000
        0.000000000000000
        0.000000000000000
        0.000000000000000
        0.000000000000000
        0.000000000000000
END_DATAGRID_3D
END_BLOCK_DATAGRID_3D
