ATOMS
         C    7.558905    7.558905    7.558905
         H    8.755769    8.755769    8.755769
         H    6.362040    6.362040    8.755769
         H    8.755769    6.362040    6.362040
         H    6.362040    8.755769    6.362040
BEGIN_BLOCK_DATAGRID_3D
units: coords = b, function = sqrt(b^-3)
BEGIN_DATAGRID_3D_function
      9      9      9
0.0 0.0 0.0
   15.117809    0.000000    0.000000
    0.000000   15.117809    0.000000
    0.000000    0.000000   15.117809
        0.000000000000000
        0.000000000000000
        0.000000000000000
        0.000000000000000
        0.000000000000000
        0.000000000000000
        0.000000000000000
        0.000000000000000
        0.000000000000000
        0.000000000000000
        0.000000000000000
        0.000000000000000
        0.000000000000000
        0.000000000000000
        0.000000000000000
        0.000000000000000
        0.000000000000000
        0.000000000000000
        0.000000000000000
        0.000000000000000
        0.000000000000000
        0.000000000000000
        0.000000000000000
        0.000000000000000
        0.000000000000000
        0.000000000000000
        0.000000000000000
        0.000000000000000
        0.000000000000000
        0.000000000000000
        0.000000000000000
       -0.001036236507982
       -0.001001328927458
        0.000000000000000
        0.000000000000000
        0.000000000000000
        0.000000000000000
        0.000000000000000
        0.000000000000000
       -0.000621654468627
       -0.001209199948452
       -0.001000045958707
        0.000000000000000
        0.000000000000000
        0.000000000000000
        0.000000000000000
        0.000000000000000
        0.000000000000000
       -0.000380875360617
       -0.000585936877861
        0.000000000000000
        0.000000000000000
        0.000000000000000
        0.000000000000000
        0.000000000000000
        0.000000000000000
        0.000000000000000
        0.000000000000000
        0.000000000000000
        0.000000000000000
        0.000000000000000
        0.000000000000000
        0.000000000000000
        0.000000000000000
        0.000000000000000
        0.000000000000000
        0.000000000000000
        0.000000000000000
        0.000000000000000
        0.000000000000000
        0.000000000000000
        0.000000000000000
        0.000000000000000
        0.000000000000000
        0.000000000000000
        0.000000000000000
        0.000000000000000
        0.000000000000000
        0.000000000000000
        0.000000000000000
        0.000000000000000
        0.000000000000000
        0.000000000000000
        0.000000000000000
        0.000000000000000
        0.000000000000000
        0.000000000000000
        0.000000000000000
        0.000000000000000
        0.000000000000000
        0.000000000000000
        0.000000000000000
        0.000000000000000
        0.000000000000000
       -0.001085560786033
       -0.001089058741595
        0.000000000000000
        0.000000000000000
        0.000000000000000
        0.000000000000000
        0.000000000000000
        0.000000000000000
       -0.001856614548334
       -0.003669863308568
       -0.003659224825810
       -0.001846373756757
        0.000000000000000
        0.000000000000000
        0.000000000000000
        0.000000000000000
       -0.000997208403741
       -0.003660606102664
       -0.006971800098275
       -0.006786033485519
       -0.003521620593450
       -0.001012934921800
        0.000000000000000
        0.000000000000000
       -0.000095031749699
       -0.000969999482035
       -0.003682979647825
       -0.007016658790887
       -0.006590827667164
       -0.003337813279112
       -0.000964801505424
        0.000000000000000
        0.000000000000000
        0.000021740897969
       -0.000261361572960
       -0.001561537886782
       -0.003309531786380
       -0.003138393626485
       -0.001555996612097
        0.000000000000000
        0.000000000000000
        0.000000000000000
        0.000000000000000
        0.000092844286685
       -0.000131422049309
       -0.000649910223912
       -0.000701632672256
        0.000000000000000
        0.000000000000000
        0.000000000000000
        0.000000000000000
        0.000000000000000
        0.000000000000000
        0.000092524385992
        0.000020038653583
        0.000000000000000
        0.000000000000000
        0.000000000000000
        0.000000000000000
        0.000000000000000
        0.000000000000000
        0.000000000000000
        0.000000000000000
        0.000000000000000
        0.000000000000000
        0.000000000000000
        0.000000000000000
        0.000000000000000
        0.000000000000000
        0.000000000000000
        0.000000000000000
        0.000000000000000
        0.000000000000000
        0.000000000000000
        0.000000000000000
        0.000000000000000
        0.000000000000000
        0.000000000000000
        0.000000000000000
        0.000000000000000
       -0.001798243338385
       -0.003586495616856
       -0.003597443343659
       -0.001820397940301
        0.000000000000000
        0.000000000000000
        0.000000000000000
        0.000000000000000
       -0.001597196720821
       -0.006513574215568
       -0.013492087849912
       -0.013687645371180
       -0.006661316226987
       -0.001751949465275
        0.000000000000000
        0.000000000000000
       -0.000216775679403
       -0.002757762060302
       -0.012875446924904
       -0.030955414572973
       -0.031069637826636
       -0.013080007452768
       -0.003300507800177
        0.000000000000000
        0.000000000000000
        0.000148198754488
       -0.001566583143385
       -0.011845200105223
       -0.032123021857101
       -0.028545827968722
       -0.011875844798755
       -0.003043638033523
        0.000000000000000
        0.000000000000000
        0.000570681649349
        0.001070818254988
       -0.001189166077605
       -0.009464976289191
       -0.010043621268386
       -0.004964628761666
       -0.001352150274240
        0.000000000000000
        0.000000000000000
        0.000444049420372
        0.001281313528161
        0.001659230262391
        0.000009466700078
       -0.001229325661220
       -0.000867295197061
        0.000000000000000
        0.000000000000000
        0.000000000000000
        0.000000000000000
        0.000507286460418
        0.000849806651327
        0.000667558830515
        0.000217101062283
        0.000000000000000
        0.000000000000000
        0.000000000000000
        0.000000000000000
        0.000000000000000
        0.000000000000000
        0.000000000000000
        0.000000000000000
        0.000000000000000
        0.000000000000000
        0.000000000000000
        0.000000000000000
        0.000000000000000
        0.000000000000000
        0.000000000000000
        0.000000000000000
       -0.000963767811664
       -0.000944310906070
        0.000000000000000
        0.000000000000000
        0.000000000000000
        0.000000000000000
        0.000000000000000
       -0.000868640265916
       -0.003358269147377
       -0.006567589311993
       -0.006501251743413
       -0.003407649145808
       -0.000984325951230
        0.000000000000000
        0.000000000000000
       -0.000146556970780
       -0.002452129688601
       -0.012077987831461
       -0.029804773406115
       -0.030358426090303
       -0.012841496930020
       -0.003248305570439
        0.000000000000000
        0.000000000000000
        0.000374774233925
       -0.002245474027138
       -0.024268621628608
       -0.087360210842220
       -0.092302024794319
       -0.028592366392714
       -0.005773706319200
       -0.000797130701968
        0.000351755127808
        0.001732589392857
        0.003534647071880
       -0.012579053721114
       -0.085207509237194
       -0.076170705801151
       -0.024553306760905
       -0.005171534156620
       -0.000743303909303
        0.000386535697294
        0.002269382362107
        0.008348196483597
        0.017673601353728
       -0.001484973050357
       -0.013263023963275
       -0.007288905795916
       -0.002089133243965
        0.000000000000000
        0.000000000000000
        0.001408416141071
        0.004874537883241
        0.010091243248095
        0.008714350861258
        0.002504641737861
       -0.000181213198919
       -0.000259427765062
        0.000000000000000
        0.000000000000000
        0.000480777699379
        0.001557837596617
        0.002960328876269
        0.003077455641491
        0.001614764444352
        0.000455902890488
        0.000000000000000
        0.000000000000000
        0.000000000000000
        0.000000000000000
        0.000000000000000
        0.000523569486731
        0.000561308084102
        0.000000000000000
        0.000000000000000
        0.000000000000000
        0.000000000000000
        0.000000000000000
        0.000000000000000
        0.000000000000000
       -0.000515166440886
       -0.001065163770720
       -0.000913277195067
        0.000000000000000
        0.000000000000000
        0.000000000000000
        0.000000000000000
       -0.000014065934317
       -0.000665934912621
       -0.003009844580057
       -0.006180878170236
       -0.006038952056669
       -0.003126793331768
       -0.000918502123479
        0.000000000000000
        0.000000000000000
        0.000369012721636
       -0.000595566876415
       -0.009139412580896
       -0.028295809517433
       -0.026433463817040
       -0.011238973845395
       -0.002915943557434
        0.000000000000000
        0.000385838370276
        0.002001869996638
        0.005089400361880
       -0.006512071019191
       -0.075054413268136
       -0.071640690308013
       -0.023591612145963
       -0.005023814819954
       -0.000729037616700
        0.000720965169123
        0.004166571561334
        0.018996197133014
        0.050381541363393
       -0.000051485202176
       -0.050071098081163
       -0.018868668968162
       -0.004101614247333
       -0.000703712231556
        0.000580734951991
        0.004105087854787
        0.018832085195382
        0.059104056188993
        0.075156792879249
        0.019418948073187
       -0.000143006254939
       -0.000985211083619
       -0.000215768491498
        0.000000000000000
        0.002197304489176
        0.008584928581683
        0.021631967629405
        0.028329467922060
        0.014039328792485
        0.003331592426489
        0.000390844807802
        0.000000000000000
        0.000000000000000
        0.000647422876389
        0.002397415234960
        0.005077841435169
        0.006185467352327
        0.003989169638312
        0.001416412612016
        0.000295123297032
        0.000000000000000
        0.000000000000000
        0.000000000000000
        0.000000000000000
        0.000754101486560
        0.001065754102584
        0.000675969934081
        0.000000000000000
        0.000000000000000
        0.000000000000000
        0.000000000000000
        0.000000000000000
        0.000000000000000
       -0.000273037432189
       -0.000465145883842
        0.000000000000000
        0.000000000000000
        0.000000000000000
        0.000000000000000
        0.000000000000000
        0.000112568694058
        0.000078455123265
       -0.000849152127785
       -0.002488965162049
       -0.002631418955553
       -0.001380334997146
        0.000000000000000
        0.000000000000000
        0.000000000000000
        0.000848905773949
        0.002273901309748
        0.001957147096467
       -0.005797649109254
       -0.008112267816963
       -0.004350561206668
       -0.001234817494010
        0.000000000000000
        0.000437560731811
        0.002697549655960
        0.010781947858337
        0.026611429973365
        0.009113291895677
       -0.008791355245097
       -0.006155033345187
       -0.001884274899814
        0.000000000000000
        0.000614818194458
        0.004374368458567
        0.020386838485382
        0.065171038890916
        0.085309888848306
        0.023948963566325
        0.000818688360003
       -0.000837491746952
       -0.000201502198895
        0.000000000000000
        0.003663065753805
        0.015817911600946
        0.046500781918747
        0.079897331150091
        0.048326265822111
        0.009614168441843
        0.000886975995208
       -0.000008567735954
        0.000000000000000
        0.001664448385540
        0.007035635961604
        0.017737761542963
        0.026933061814538
        0.018399504045629
        0.005764775309470
        0.001027365899006
        0.000000000000000
        0.000000000000000
        0.000000000000000
        0.001803646301640
        0.004385247598022
        0.005986416418240
        0.004407482106383
        0.001791141053699
        0.000400386905107
        0.000000000000000
        0.000000000000000
        0.000000000000000
        0.000000000000000
        0.000000000000000
        0.000868333890133
        0.000695315785120
        0.000000000000000
        0.000000000000000
        0.000000000000000
        0.000000000000000
        0.000000000000000
        0.000000000000000
        0.000000000000000
        0.000000000000000
        0.000000000000000
        0.000000000000000
        0.000000000000000
        0.000000000000000
        0.000000000000000
        0.000000000000000
        0.000277619905351
        0.000260347771642
       -0.000218531775288
       -0.000455879345392
        0.000000000000000
        0.000000000000000
        0.000000000000000
        0.000000000000000
        0.000602993446007
        0.001929900215762
        0.003100748554801
        0.001616659775485
       -0.000309922161849
       -0.000575379579345
        0.000000000000000
        0.000000000000000
        0.000000000000000
        0.001686640265671
        0.006077620938001
        0.013237556422167
        0.012381678041195
        0.004435995189283
        0.000432854356079
       -0.000142094984831
        0.000000000000000
        0.000000000000000
        0.002418118456325
        0.009555944848653
        0.024337755153731
        0.032156680261727
        0.016151692944166
        0.003968463379848
        0.000518539283891
        0.000000000000000
        0.000000000000000
        0.001734667094163
        0.007341268333306
        0.018535220636406
        0.028083702981396
        0.019110715781962
        0.006003285832218
        0.001079568128745
        0.000000000000000
        0.000000000000000
        0.000000000000000
        0.003056053831570
        0.008069473344900
        0.011881427636772
        0.008964457509850
        0.003485839544143
        0.000721447308586
        0.000000000000000
        0.000000000000000
        0.000000000000000
        0.000000000000000
        0.002039568573207
        0.003140810803378
        0.002496020945886
        0.001044188182825
        0.000000000000000
        0.000000000000000
        0.000000000000000
        0.000000000000000
        0.000000000000000
        0.000000000000000
        0.000000000000000
        0.000000000000000
        0.000000000000000
        0.000000000000000
        0.000000000000000
        0.000000000000000
        0.000000000000000
        0.000000000000000
        0.000000000000000
        0.000000000000000
        0.000000000000000
        0.000000000000000
        0.000000000000000
        0.000000000000000
        0.000000000000000
        0.000000000000000
        0.000000000000000
        0.000211785960398
        0.000147194521222
        0.000000000000000
        0.000000000000000
        0.000000000000000
        0.000000000000000
        0.000000000000000
        0.000000000000000
        0.000692062079084
        0.001241576472278
        0.001098937279140
        0.000462854389148
        0.000000000000000
        0.000000000000000
        0.000000000000000
        0.000000000000000
        0.000571605495467
        0.001897654292842
        0.003672714635266
        0.003898022265822
        0.002121739115284
        0.000631564505439
        0.000000000000000
        0.000000000000000
        0.000000000000000
        0.000728388691771
        0.002701479804374
        0.005750976502937
        0.007021247972977
        0.004541045248807
        0.001627432559361
        0.000341422678976
        0.000000000000000
        0.000000000000000
        0.000000000000000
        0.001932214439465
        0.004687584553309
        0.006390627204522
        0.004692263848488
        0.001905112501341
        0.000428995875677
        0.000000000000000
        0.000000000000000
        0.000000000000000
        0.000000000000000
        0.002097939783157
        0.003224178495090
        0.002557802428037
        0.001070163999281
        0.000000000000000
        0.000000000000000
        0.000000000000000
        0.000000000000000
        0.000000000000000
        0.000000000000000
        0.000919172538798
        0.000786600365802
        0.000000000000000
        0.000000000000000
        0.000000000000000
        0.000000000000000
        0.000000000000000
        0.000000000000000
        0.000000000000000
        0.000000000000000
        0.000000000000000
        0.000000000000000
        0.000000000000000
        0.000000000000000
        0.000000000000000
        0.000000000000000
        0.000000000000000
        0.000000000000000
        0.000000000000000
        0.000000000000000
        0.000000000000000
        0.000000000000000
        0.000000000000000
        0.000000000000000
        0.000000000000000
        0.000000000000000
        0.000000000000000
        0.000000000000000
        0.000000000000000
        0.000000000000000
        0.000000000000000
        0.000000000000000
        0.000000000000000
        0.000000000000000
        0.000000000000000
        0.000000000000000
        0.000000000000000
        0.000000000000000
        0.000000000000000
        0.000000000000000
        0.000000000000000
        0.000000000000000
        0.000000000000000
        0.000000000000000
        0.000631407415160
        0.000682099078121
        0.000000000000000
        0.000000000000000
        0.000000000000000
        0.000000000000000
        0.000000000000000
        0.000000000000000
        0.000000000000000
        0.000860589514302
        0.001209790280316
        0.000762738697721
        0.000000000000000
        0.000000000000000
        0.000000000000000
        0.000000000000000
        0.000000000000000
        0.000000000000000
        0.000000000000000
        0.000940802586452
        0.000752333806509
        0.000000000000000
        0.000000000000000
        0.000000000000000
        0.000000000000000
        0.000000000000000
        0.000000000000000
        0.000000000000000
        0.000000000000000
        0.000000000000000
        0.000000000000000
        0.000000000000000
        0.000000000000000
        0.000000000000000
        0.000000000000000
        0.000000000000000
        0.000000000000000
        0.000000000000000
        0.000000000000000
        0.000000000000000
        0.000000000000000
        0.000000000000000
        0.000000000000000
        0.000000000000000
        0.000000000000000
        0.000000000000000
        0.000000000000000
        0.000000000000000
        0.000000000000000
        0.000000000000000
        0.000000000000000
END_DATAGRID_3D
END_BLOCK_DATAGRID_3D
