ATOMS
         C    7.558905    7.558905    7.558905
         H    8.755769    8.755769    8.755769
         H    6.362040    6.362040    8.755769
         H    8.755769    6.362040    6.362040
         H    6.362040    8.755769    6.362040
BEGIN_BLOCK_DATAGRID_3D
units: coords = b, function = sqrt(b^-3)
BEGIN_DATAGRID_3D_function
      9      9      9
0.0 0.0 0.0
   15.117809    0.000000    0.000000
    0.000000   15.117809    0.000000
    0.000000    0.000000   15.117809
        0.000000000000000
        0.000000000000000
        0.000000000000000
        0.000000000000000
        0.000000000000000
        0.000000000000000
        0.000000000000000
        0.000000000000000
        0.000000000000000
        0.000000000000000
        0.000000000000000
        0.000000000000000
        0.000000000000000
        0.000000000000000
        0.000000000000000
        0.000000000000000
        0.000000000000000
        0.000000000000000
        0.000000000000000
        0.000000000000000
        0.000000000000000
        0.000000000000000
        0.000000000000000
        0.000000000000000
        0.000000000000000
        0.000000000000000
        0.000000000000000
        0.000000000000000
        0.000000000000000
        0.000000000000000
        0.000000000000000
       -0.000128776558580
        0.000073385574475
        0.000000000000000
        0.000000000000000
        0.000000000000000
        0.000000000000000
        0.000000000000000
        0.000000000000000
       -0.000311420975828
       -0.000111159630688
        0.000162002943114
        0.000000000000000
        0.000000000000000
        0.000000000000000
        0.000000000000000
        0.000000000000000
        0.000000000000000
       -0.000200226739812
       -0.000020641474134
        0.000000000000000
        0.000000000000000
        0.000000000000000
        0.000000000000000
        0.000000000000000
        0.000000000000000
        0.000000000000000
        0.000000000000000
        0.000000000000000
        0.000000000000000
        0.000000000000000
        0.000000000000000
        0.000000000000000
        0.000000000000000
        0.000000000000000
        0.000000000000000
        0.000000000000000
        0.000000000000000
        0.000000000000000
        0.000000000000000
        0.000000000000000
        0.000000000000000
        0.000000000000000
        0.000000000000000
        0.000000000000000
        0.000000000000000
        0.000000000000000
        0.000000000000000
        0.000000000000000
        0.000000000000000
        0.000000000000000
        0.000000000000000
        0.000000000000000
        0.000000000000000
        0.000000000000000
        0.000000000000000
        0.000000000000000
        0.000000000000000
        0.000000000000000
        0.000000000000000
        0.000000000000000
        0.000000000000000
        0.000000000000000
        0.000000000000000
       -0.000302084045402
       -0.000092238387882
        0.000000000000000
        0.000000000000000
        0.000000000000000
        0.000000000000000
        0.000000000000000
        0.000000000000000
       -0.001124496083082
       -0.000907529085341
        0.000042154603198
        0.000345544071690
        0.000000000000000
        0.000000000000000
        0.000000000000000
        0.000000000000000
       -0.001502054484721
       -0.002405908247052
       -0.001255974347158
        0.000766577601318
        0.001104709730092
        0.000487663784180
        0.000000000000000
        0.000000000000000
       -0.000735935866326
       -0.002095109661464
       -0.002704594973783
       -0.000646785209352
        0.001756990332001
        0.001696789418079
        0.000638247087462
        0.000000000000000
        0.000000000000000
       -0.000579095243432
       -0.001454188051724
       -0.001537460565990
        0.000308369705375
        0.001777845856926
        0.001266413620834
        0.000000000000000
        0.000000000000000
        0.000000000000000
        0.000000000000000
       -0.000507632814679
       -0.000391632924830
        0.000509208841957
        0.000888855219194
        0.000000000000000
        0.000000000000000
        0.000000000000000
        0.000000000000000
        0.000000000000000
        0.000000000000000
        0.000000806928630
        0.000204395266538
        0.000000000000000
        0.000000000000000
        0.000000000000000
        0.000000000000000
        0.000000000000000
        0.000000000000000
        0.000000000000000
        0.000000000000000
        0.000000000000000
        0.000000000000000
        0.000000000000000
        0.000000000000000
        0.000000000000000
        0.000000000000000
        0.000000000000000
        0.000000000000000
        0.000000000000000
        0.000000000000000
        0.000000000000000
        0.000000000000000
        0.000000000000000
        0.000000000000000
        0.000000000000000
        0.000000000000000
        0.000000000000000
       -0.001511011224258
       -0.001462081682999
       -0.000368194281706
        0.000171350590186
        0.000000000000000
        0.000000000000000
        0.000000000000000
        0.000000000000000
       -0.003080268958845
       -0.005778755351612
       -0.004460898846379
        0.000268171333885
        0.001502323148092
        0.000703798105996
        0.000000000000000
        0.000000000000000
       -0.002206541013338
       -0.007432622476115
       -0.012552198936527
       -0.007400799037151
        0.005090347108693
        0.005122643101297
        0.001948651433430
        0.000000000000000
        0.000000000000000
       -0.003105871706309
       -0.009703470071036
       -0.015800152618506
       -0.002946692392912
        0.012085794944419
        0.008463258502269
        0.002837306868168
        0.000000000000000
        0.000000000000000
       -0.002202115443567
       -0.006232975125242
       -0.008062021604566
        0.003686441363064
        0.010443893240816
        0.006719078989124
        0.002061337790511
        0.000000000000000
        0.000000000000000
       -0.000825128684875
       -0.002000454341366
       -0.001378503357829
        0.003220687277612
        0.005065211864622
        0.002853170428830
        0.000000000000000
        0.000000000000000
        0.000000000000000
        0.000000000000000
       -0.000292681169065
        0.000114730271568
        0.001193516844858
        0.001365808001430
        0.000000000000000
        0.000000000000000
        0.000000000000000
        0.000000000000000
        0.000000000000000
        0.000000000000000
        0.000000000000000
        0.000000000000000
        0.000000000000000
        0.000000000000000
        0.000000000000000
        0.000000000000000
        0.000000000000000
        0.000000000000000
        0.000000000000000
        0.000000000000000
       -0.000608790587084
       -0.000302415171372
        0.000000000000000
        0.000000000000000
        0.000000000000000
        0.000000000000000
        0.000000000000000
       -0.002347516703139
       -0.004405769942488
       -0.003932574080724
       -0.001127690471824
        0.000346739396413
        0.000297945219846
        0.000000000000000
        0.000000000000000
       -0.002665488090579
       -0.009443006775972
       -0.017801083409140
       -0.014982770830760
        0.000383699000752
        0.003534472787950
        0.001601029984655
        0.000000000000000
        0.000000000000000
       -0.006050980518331
       -0.022119142135615
       -0.046836006133863
       -0.033337907975324
        0.020743199277922
        0.014770248205915
        0.004662413274416
        0.000846274043856
       -0.001186324389959
       -0.007583132070823
       -0.029619525832949
       -0.066153260205283
       -0.007819537136804
        0.057991022308393
        0.027679214167800
        0.007261803970831
        0.001149221068336
       -0.000885184545314
       -0.004990071335793
       -0.016640651090832
       -0.027621103423736
        0.025175670078435
        0.043382934896611
        0.021238981677514
        0.005890850053540
        0.000000000000000
        0.000000000000000
       -0.001773156783232
       -0.004273201318423
       -0.002254101885669
        0.013042459165611
        0.016920922951039
        0.009199857315849
        0.002627670288439
        0.000000000000000
        0.000000000000000
       -0.000344985922835
       -0.000518866194990
        0.000800032410448
        0.003611245980732
        0.004245639477697
        0.002309698900999
        0.000000000000000
        0.000000000000000
        0.000000000000000
        0.000000000000000
        0.000000000000000
        0.000263504669914
        0.000571687265461
        0.000000000000000
        0.000000000000000
        0.000000000000000
        0.000000000000000
        0.000000000000000
        0.000000000000000
        0.000000000000000
       -0.001013451309907
       -0.001061314452176
       -0.000413141388839
        0.000000000000000
        0.000000000000000
        0.000000000000000
        0.000000000000000
       -0.001263311298322
       -0.004093244581837
       -0.007142088385609
       -0.006175285810945
       -0.001905319338273
        0.000290217994934
        0.000330611970505
        0.000000000000000
        0.000000000000000
       -0.004549454029025
       -0.016076160310045
       -0.033592091294421
       -0.028134019547834
       -0.001871335991638
        0.004235040889812
        0.001985288042681
        0.000000000000000
       -0.001408340695533
       -0.009344025749083
       -0.039829492715256
       -0.106042479804619
       -0.074658288456246
        0.028112200723724
        0.021304055025352
        0.006276094034124
        0.001054090764886
       -0.001842970886001
       -0.010723374150778
       -0.048854680935095
       -0.129644001117184
       -0.000000000000001
        0.129644001117185
        0.048854680935096
        0.010723374150778
        0.001842970886001
       -0.001068935294238
       -0.006366783610684
       -0.021752693291962
       -0.029283327913932
        0.074658288456248
        0.107213606994830
        0.040278130981866
        0.009434715325642
        0.001423185224884
        0.000000000000000
       -0.002054495690101
       -0.004485925040266
        0.001422697725029
        0.028134019547834
        0.034040729561032
        0.016327044460499
        0.004618661676446
        0.000000000000000
        0.000000000000000
       -0.000356319625421
       -0.000359425642355
        0.001814629761713
        0.006175285810945
        0.007232777962168
        0.004162452229258
        0.001289018953238
        0.000000000000000
        0.000000000000000
        0.000000000000000
        0.000000000000000
        0.000398296859488
        0.001061314452176
        0.001028295839258
        0.000000000000000
        0.000000000000000
        0.000000000000000
        0.000000000000000
        0.000000000000000
        0.000000000000000
       -0.000908621254978
       -0.000817802111662
        0.000000000000000
        0.000000000000000
        0.000000000000000
        0.000000000000000
        0.000000000000000
       -0.001170901782285
       -0.003683439879976
       -0.006232438617100
       -0.005114833643158
       -0.001590756740638
        0.000097697656256
        0.000000000000000
        0.000000000000000
        0.000000000000000
       -0.004021018386915
       -0.014135546365016
       -0.028756239194563
       -0.020480656455299
       -0.002328304306603
        0.002630335572317
        0.001279136967109
        0.000000000000000
       -0.001217778314633
       -0.007790781313761
       -0.032628220572888
       -0.086411095306679
       -0.044592371105571
        0.013867253127064
        0.013715668602709
        0.004522109151412
        0.000000000000000
       -0.001290951599812
       -0.008127677288943
       -0.031962660174269
       -0.069172547513268
        0.007819537136805
        0.077334785410160
        0.033902971839419
        0.008449005388935
        0.001328054921435
        0.000000000000000
       -0.004361978686621
       -0.012835508144608
       -0.010414181889810
        0.052754609002464
        0.093288999452495
        0.034498623457806
        0.008118439375137
        0.001256688816091
        0.000000000000000
       -0.001241319164968
       -0.002387186112194
        0.003208464764705
        0.022420968120450
        0.030626642079481
        0.014874274895490
        0.004193145185492
        0.000000000000000
        0.000000000000000
        0.000000000000000
       -0.000059879854115
        0.001750887205429
        0.005436161743150
        0.006560096678477
        0.003855566678553
        0.001217942485274
        0.000000000000000
        0.000000000000000
        0.000000000000000
        0.000000000000000
        0.000000000000000
        0.000854905433285
        0.000947531756436
        0.000000000000000
        0.000000000000000
        0.000000000000000
        0.000000000000000
        0.000000000000000
        0.000000000000000
        0.000000000000000
        0.000000000000000
        0.000000000000000
        0.000000000000000
        0.000000000000000
        0.000000000000000
        0.000000000000000
        0.000000000000000
       -0.001718918933156
       -0.002968506201858
       -0.002340944903904
       -0.000738807822626
        0.000000000000000
        0.000000000000000
        0.000000000000000
        0.000000000000000
       -0.001862221321849
       -0.006258310831995
       -0.010869244910951
       -0.007380220573854
       -0.001033915852043
        0.000912009218499
        0.000000000000000
        0.000000000000000
        0.000000000000000
       -0.003592059726579
       -0.012175772558198
       -0.022948319475665
       -0.011124638652753
        0.004148725403621
        0.005111113899042
        0.001845469465037
        0.000000000000000
        0.000000000000000
       -0.003498078012817
       -0.010858615279275
       -0.016369240950887
        0.002946692392913
        0.020083598624975
        0.012098826848043
        0.003766642850958
        0.000000000000000
        0.000000000000000
       -0.001700266242209
       -0.004397570412051
       -0.002040419707909
        0.014838996326841
        0.025919993971539
        0.013286104582143
        0.003845523736717
        0.000000000000000
        0.000000000000000
        0.000000000000000
       -0.000684910688483
        0.001747459339034
        0.008620432142622
        0.011979576934896
        0.006756442025268
        0.001983551900728
        0.000000000000000
        0.000000000000000
        0.000000000000000
        0.000000000000000
        0.000884011045453
        0.002609509742045
        0.003221970211995
        0.001840249512035
        0.000000000000000
        0.000000000000000
        0.000000000000000
        0.000000000000000
        0.000000000000000
        0.000000000000000
        0.000000000000000
        0.000000000000000
        0.000000000000000
        0.000000000000000
        0.000000000000000
        0.000000000000000
        0.000000000000000
        0.000000000000000
        0.000000000000000
        0.000000000000000
        0.000000000000000
        0.000000000000000
        0.000000000000000
        0.000000000000000
        0.000000000000000
        0.000000000000000
        0.000000000000000
       -0.000780718174557
       -0.000630615282415
        0.000000000000000
        0.000000000000000
        0.000000000000000
        0.000000000000000
        0.000000000000000
        0.000000000000000
       -0.001503967287543
       -0.002462143005459
       -0.001656636901003
       -0.000261855040389
        0.000000000000000
        0.000000000000000
        0.000000000000000
        0.000000000000000
       -0.000936792461688
       -0.002748118023242
       -0.003894945640662
       -0.001811957367800
        0.000877036880133
        0.001140982936420
        0.000000000000000
        0.000000000000000
        0.000000000000000
       -0.000883695057417
       -0.002357560562728
       -0.002622863650112
        0.000646785209352
        0.003570468291895
        0.002755880806113
        0.000981383836281
        0.000000000000000
        0.000000000000000
        0.000000000000000
       -0.000905342072533
       -0.000248974490007
        0.002759562009583
        0.004665828605335
        0.003097596344874
        0.001028223920940
        0.000000000000000
        0.000000000000000
        0.000000000000000
        0.000000000000000
        0.000497495904277
        0.002054957144388
        0.002811621327091
        0.001666056030532
        0.000000000000000
        0.000000000000000
        0.000000000000000
        0.000000000000000
        0.000000000000000
        0.000000000000000
        0.000728304061278
        0.000872149633809
        0.000000000000000
        0.000000000000000
        0.000000000000000
        0.000000000000000
        0.000000000000000
        0.000000000000000
        0.000000000000000
        0.000000000000000
        0.000000000000000
        0.000000000000000
        0.000000000000000
        0.000000000000000
        0.000000000000000
        0.000000000000000
        0.000000000000000
        0.000000000000000
        0.000000000000000
        0.000000000000000
        0.000000000000000
        0.000000000000000
        0.000000000000000
        0.000000000000000
        0.000000000000000
        0.000000000000000
        0.000000000000000
        0.000000000000000
        0.000000000000000
        0.000000000000000
        0.000000000000000
        0.000000000000000
        0.000000000000000
        0.000000000000000
        0.000000000000000
        0.000000000000000
        0.000000000000000
        0.000000000000000
        0.000000000000000
        0.000000000000000
        0.000000000000000
        0.000000000000000
        0.000000000000000
        0.000000000000000
       -0.000444889845252
       -0.000225473372067
        0.000000000000000
        0.000000000000000
        0.000000000000000
        0.000000000000000
        0.000000000000000
        0.000000000000000
        0.000000000000000
       -0.000303733474590
        0.000111159630688
        0.000453151507305
        0.000000000000000
        0.000000000000000
        0.000000000000000
        0.000000000000000
        0.000000000000000
        0.000000000000000
        0.000000000000000
        0.000374891404781
        0.000571731010589
        0.000000000000000
        0.000000000000000
        0.000000000000000
        0.000000000000000
        0.000000000000000
        0.000000000000000
        0.000000000000000
        0.000000000000000
        0.000000000000000
        0.000000000000000
        0.000000000000000
        0.000000000000000
        0.000000000000000
        0.000000000000000
        0.000000000000000
        0.000000000000000
        0.000000000000000
        0.000000000000000
        0.000000000000000
        0.000000000000000
        0.000000000000000
        0.000000000000000
        0.000000000000000
        0.000000000000000
        0.000000000000000
        0.000000000000000
        0.000000000000000
        0.000000000000000
        0.000000000000000
        0.000000000000000
END_DATAGRID_3D
END_BLOCK_DATAGRID_3D
