ATOMS
         C    7.558905    7.558905    7.558905
         H    8.755769    8.755769    8.755769
         H    6.362040    6.362040    8.755769
         H    8.755769    6.362040    6.362040
         H    6.362040    8.755769    6.362040
BEGIN_BLOCK_DATAGRID_3D
units: coords = b, function = sqrt(b^-3)
BEGIN_DATAGRID_3D_function
      9      9      9
0.0 0.0 0.0
   15.117809    0.000000    0.000000
    0.000000   15.117809    0.000000
    0.000000    0.000000   15.117809
        0.000000000000000
        0.000000000000000
        0.000000000000000
        0.000000000000000
        0.000000000000000
        0.000000000000000
        0.000000000000000
        0.000000000000000
        0.000000000000000
        0.000000000000000
        0.000000000000000
        0.000000000000000
        0.000000000000000
        0.000000000000000
        0.000000000000000
        0.000000000000000
        0.000000000000000
        0.000000000000000
        0.000000000000000
        0.000000000000000
        0.000000000000000
        0.000000000000000
        0.000000000000000
        0.000000000000000
        0.000000000000000
        0.000000000000000
        0.000000000000000
        0.000000000000000
        0.000000000000000
        0.000000000000000
        0.000000000000000
       -0.001438708798080
       -0.001237310130043
        0.000000000000000
        0.000000000000000
        0.000000000000000
        0.000000000000000
        0.000000000000000
        0.000000000000000
       -0.001405787524022
       -0.002125459014660
       -0.001451202037914
        0.000000000000000
        0.000000000000000
        0.000000000000000
        0.000000000000000
        0.000000000000000
        0.000000000000000
       -0.001187992082878
       -0.001418280763856
        0.000000000000000
        0.000000000000000
        0.000000000000000
        0.000000000000000
        0.000000000000000
        0.000000000000000
        0.000000000000000
        0.000000000000000
        0.000000000000000
        0.000000000000000
        0.000000000000000
        0.000000000000000
        0.000000000000000
        0.000000000000000
        0.000000000000000
        0.000000000000000
        0.000000000000000
        0.000000000000000
        0.000000000000000
        0.000000000000000
        0.000000000000000
        0.000000000000000
        0.000000000000000
        0.000000000000000
        0.000000000000000
        0.000000000000000
        0.000000000000000
        0.000000000000000
        0.000000000000000
        0.000000000000000
        0.000000000000000
        0.000000000000000
        0.000000000000000
        0.000000000000000
        0.000000000000000
        0.000000000000000
        0.000000000000000
        0.000000000000000
        0.000000000000000
        0.000000000000000
        0.000000000000000
        0.000000000000000
        0.000000000000000
        0.000000000000000
       -0.000952842841834
       -0.000905540296734
        0.000000000000000
        0.000000000000000
        0.000000000000000
        0.000000000000000
        0.000000000000000
        0.000000000000000
       -0.002235483495713
       -0.003859179817826
       -0.003453179481978
       -0.001626523396865
        0.000000000000000
        0.000000000000000
        0.000000000000000
        0.000000000000000
       -0.002167429383792
       -0.005914645110455
       -0.009125300602162
       -0.007577591410337
       -0.003498831792268
       -0.000930455591223
        0.000000000000000
        0.000000000000000
       -0.000874641958871
       -0.003645120903783
       -0.008864189765197
       -0.012367038692507
       -0.009254751578347
       -0.003971073453651
       -0.000993243840866
        0.000000000000000
        0.000000000000000
       -0.000817785367184
       -0.003183466849262
       -0.007162293351474
       -0.008993640741382
       -0.006094398645776
       -0.002338208096928
        0.000000000000000
        0.000000000000000
        0.000000000000000
        0.000000000000000
       -0.001472740048219
       -0.003229119159552
       -0.003757014539608
       -0.002270153985007
        0.000000000000000
        0.000000000000000
        0.000000000000000
        0.000000000000000
        0.000000000000000
        0.000000000000000
       -0.000842700661672
       -0.000915042957903
        0.000000000000000
        0.000000000000000
        0.000000000000000
        0.000000000000000
        0.000000000000000
        0.000000000000000
        0.000000000000000
        0.000000000000000
        0.000000000000000
        0.000000000000000
        0.000000000000000
        0.000000000000000
        0.000000000000000
        0.000000000000000
        0.000000000000000
        0.000000000000000
        0.000000000000000
        0.000000000000000
        0.000000000000000
        0.000000000000000
        0.000000000000000
        0.000000000000000
        0.000000000000000
        0.000000000000000
        0.000000000000000
       -0.001374141081536
       -0.002623368791637
       -0.002538723975520
       -0.001238336187859
        0.000000000000000
        0.000000000000000
        0.000000000000000
        0.000000000000000
       -0.002043686613921
       -0.006702325066139
       -0.012051747527513
       -0.011096831714886
       -0.005078013019638
       -0.001261212609599
        0.000000000000000
        0.000000000000000
       -0.001248773292328
       -0.006404218977374
       -0.019662216777129
       -0.035849076425970
       -0.029595712895269
       -0.011305402400596
       -0.002638266443298
        0.000000000000000
        0.000000000000000
       -0.002327079079277
       -0.011106785033427
       -0.034335110517101
       -0.056343061515815
       -0.036686311137308
       -0.012607029438622
       -0.002808090520635
        0.000000000000000
        0.000000000000000
       -0.002208163523252
       -0.009925013668134
       -0.027225025953722
       -0.035172345228439
       -0.020650235853947
       -0.007239290157962
       -0.001527625810525
        0.000000000000000
        0.000000000000000
       -0.001058722883487
       -0.004446644706108
       -0.010133584353844
       -0.011662066944536
       -0.006941184069196
       -0.002298614766972
        0.000000000000000
        0.000000000000000
        0.000000000000000
        0.000000000000000
       -0.001081599305227
       -0.002307705991030
       -0.002511800808275
       -0.001402258021317
        0.000000000000000
        0.000000000000000
        0.000000000000000
        0.000000000000000
        0.000000000000000
        0.000000000000000
        0.000000000000000
        0.000000000000000
        0.000000000000000
        0.000000000000000
        0.000000000000000
        0.000000000000000
        0.000000000000000
        0.000000000000000
        0.000000000000000
        0.000000000000000
       -0.000369005704710
       -0.000399844563514
        0.000000000000000
        0.000000000000000
        0.000000000000000
        0.000000000000000
        0.000000000000000
       -0.000283331218604
       -0.001457987356958
       -0.003160543647806
       -0.003356247247071
       -0.001809707803233
       -0.000507670999342
        0.000000000000000
        0.000000000000000
       -0.000226017541318
       -0.001924111779004
       -0.007965167058409
       -0.018952781318218
       -0.019107027687134
       -0.007766191885688
       -0.001863597960722
        0.000000000000000
        0.000000000000000
       -0.001161441592976
       -0.007186846007740
       -0.031074597726414
       -0.079029675336954
       -0.070114233502941
       -0.019725140754114
       -0.003605017034299
       -0.000449197594856
       -0.000264906445130
       -0.002502538208241
       -0.016314536853908
       -0.073114776757855
       -0.149515661350981
       -0.082953590960957
       -0.020785738618461
       -0.003641506194953
       -0.000444538062096
       -0.000294801603203
       -0.002660061177693
       -0.016038424203584
       -0.061396669134762
       -0.077038692381859
       -0.034950823049439
       -0.009642509833363
       -0.001900378042487
        0.000000000000000
        0.000000000000000
       -0.001427600952362
       -0.006358874964198
       -0.016656537270563
       -0.018147494154151
       -0.008864188782694
       -0.002725095930015
       -0.000497088391802
        0.000000000000000
        0.000000000000000
       -0.000391784006095
       -0.001481491109851
       -0.002908830964921
       -0.002983500755388
       -0.001603832278505
       -0.000439774714515
        0.000000000000000
        0.000000000000000
        0.000000000000000
        0.000000000000000
        0.000000000000000
       -0.000344154634545
       -0.000340438802516
        0.000000000000000
        0.000000000000000
        0.000000000000000
        0.000000000000000
        0.000000000000000
        0.000000000000000
        0.000000000000000
        0.000158675127921
       -0.000008055165250
       -0.000169502682289
        0.000000000000000
        0.000000000000000
        0.000000000000000
        0.000000000000000
        0.000300605216158
        0.000807688760874
        0.001024688783271
       -0.000046869189023
       -0.001093356805411
       -0.000836552975004
       -0.000307684218238
        0.000000000000000
        0.000000000000000
        0.000889919559191
        0.003094646710140
        0.005313922028853
       -0.000213531603321
       -0.005583082376693
       -0.003184518447473
       -0.000909381068177
        0.000000000000000
        0.000229853113443
        0.001421583385871
        0.006438200584293
        0.015777670261857
       -0.000566641535460
       -0.016369145554288
       -0.006578804965597
       -0.001444868376373
       -0.000232541799841
        0.000132836771469
        0.000772914218157
        0.003521324257395
        0.009344418123744
       -0.000000000000002
       -0.009344418123739
       -0.003521324257392
       -0.000772914218156
       -0.000132836771469
       -0.000051297202974
       -0.000289187205138
       -0.001999509321552
       -0.006023721607396
        0.000566641535465
        0.006615196899837
        0.002140113702859
        0.000312472195641
        0.000053985889372
        0.000000000000000
       -0.000413923239177
       -0.001612582585663
       -0.002995231910456
        0.000213531603323
        0.003264392258300
        0.001702454322997
        0.000433384748163
        0.000000000000000
        0.000000000000000
       -0.000183866235355
       -0.000486751332350
       -0.000640698776100
        0.000046869189024
        0.000709366798240
        0.000515615546481
        0.000190945237435
        0.000000000000000
        0.000000000000000
        0.000000000000000
        0.000000000000000
       -0.000114336320526
        0.000008055165250
        0.000125163874894
        0.000000000000000
        0.000000000000000
        0.000000000000000
        0.000000000000000
        0.000000000000000
        0.000000000000000
        0.000390653038308
        0.000358178150342
        0.000000000000000
        0.000000000000000
        0.000000000000000
        0.000000000000000
        0.000000000000000
        0.000501045432950
        0.001784382911323
        0.003300385333620
        0.003091875625666
        0.001412474914102
        0.000266255540263
        0.000000000000000
        0.000000000000000
        0.000000000000000
        0.001845230730875
        0.007685731849255
        0.018891685759630
        0.018683620970378
        0.007812389015958
        0.001872404961834
        0.000215495412489
        0.000000000000000
        0.000446377951454
        0.003581273344135
        0.019589602301634
        0.069615827254881
        0.078438200044521
        0.030824371459349
        0.007123065317822
        0.001149837763894
        0.000000000000000
        0.000443462355599
        0.003634934388974
        0.020753228116650
        0.082868725412313
        0.149515661350983
        0.073199642306505
        0.016347047355722
        0.002509110014220
        0.000265982151627
        0.000000000000000
        0.001911981871571
        0.009706290523283
        0.035201049316509
        0.077630167674298
        0.061895075382829
        0.016173962656066
        0.002683804867858
        0.000297621246605
        0.000000000000000
        0.000507610520631
        0.002776802747186
        0.009016966825147
        0.018416654501994
        0.016871879198070
        0.006439335000633
        0.001445968182209
        0.000000000000000
        0.000000000000000
        0.000000000000000
        0.000456850392857
        0.001649344721363
        0.003052168777528
        0.002964692878373
        0.001506816001761
        0.000398409572487
        0.000000000000000
        0.000000000000000
        0.000000000000000
        0.000000000000000
        0.000000000000000
        0.000351266356884
        0.000353346159751
        0.000000000000000
        0.000000000000000
        0.000000000000000
        0.000000000000000
        0.000000000000000
        0.000000000000000
        0.000000000000000
        0.000000000000000
        0.000000000000000
        0.000000000000000
        0.000000000000000
        0.000000000000000
        0.000000000000000
        0.000000000000000
        0.001226590452453
        0.002513399083609
        0.002594504577507
        0.001357065403194
        0.000000000000000
        0.000000000000000
        0.000000000000000
        0.000000000000000
        0.001252420408179
        0.005041916020636
        0.011016371678453
        0.011961875790181
        0.006650618248970
        0.002027229954467
        0.000000000000000
        0.000000000000000
        0.000000000000000
        0.002625793301764
        0.011251870553190
        0.029460174442788
        0.035708472044666
        0.019598436087211
        0.006386599189780
        0.001246032831211
        0.000000000000000
        0.000000000000000
        0.002803075399291
        0.012588849157904
        0.036653800635497
        0.056343061515816
        0.034367621018914
        0.011124965314146
        0.002332094200621
        0.000000000000000
        0.000000000000000
        0.001530366271641
        0.007256909945556
        0.020714016543867
        0.035312949609746
        0.027360564406204
        0.009978545515541
        0.002220636664786
        0.000000000000000
        0.000000000000000
        0.000000000000000
        0.002315071426426
        0.006992890886367
        0.011751938681869
        0.010214044390278
        0.004482741705110
        0.001067515084906
        0.000000000000000
        0.000000000000000
        0.000000000000000
        0.000000000000000
        0.001419333699659
        0.002540665022405
        0.002333030882941
        0.001093345040633
        0.000000000000000
        0.000000000000000
        0.000000000000000
        0.000000000000000
        0.000000000000000
        0.000000000000000
        0.000000000000000
        0.000000000000000
        0.000000000000000
        0.000000000000000
        0.000000000000000
        0.000000000000000
        0.000000000000000
        0.000000000000000
        0.000000000000000
        0.000000000000000
        0.000000000000000
        0.000000000000000
        0.000000000000000
        0.000000000000000
        0.000000000000000
        0.000000000000000
        0.000000000000000
        0.000898914730342
        0.000945763839755
        0.000000000000000
        0.000000000000000
        0.000000000000000
        0.000000000000000
        0.000000000000000
        0.000000000000000
        0.001617731195445
        0.003434812252131
        0.003839718308840
        0.002224961366884
        0.000000000000000
        0.000000000000000
        0.000000000000000
        0.000000000000000
        0.000927046794039
        0.003486358650734
        0.007553847720173
        0.009102015611660
        0.005903041281373
        0.002164688922675
        0.000000000000000
        0.000000000000000
        0.000000000000000
        0.000991380939674
        0.003966058332306
        0.009248179772368
        0.012367038692507
        0.008870761571177
        0.003650136025128
        0.000876504860064
        0.000000000000000
        0.000000000000000
        0.000000000000000
        0.002340948558044
        0.006106002474860
        0.009016925731885
        0.007186037041639
        0.003195939990796
        0.000821194164368
        0.000000000000000
        0.000000000000000
        0.000000000000000
        0.000000000000000
        0.002280676113836
        0.003776476048594
        0.003247486389399
        0.001481532249639
        0.000000000000000
        0.000000000000000
        0.000000000000000
        0.000000000000000
        0.000000000000000
        0.000000000000000
        0.000922121959983
        0.000849326228065
        0.000000000000000
        0.000000000000000
        0.000000000000000
        0.000000000000000
        0.000000000000000
        0.000000000000000
        0.000000000000000
        0.000000000000000
        0.000000000000000
        0.000000000000000
        0.000000000000000
        0.000000000000000
        0.000000000000000
        0.000000000000000
        0.000000000000000
        0.000000000000000
        0.000000000000000
        0.000000000000000
        0.000000000000000
        0.000000000000000
        0.000000000000000
        0.000000000000000
        0.000000000000000
        0.000000000000000
        0.000000000000000
        0.000000000000000
        0.000000000000000
        0.000000000000000
        0.000000000000000
        0.000000000000000
        0.000000000000000
        0.000000000000000
        0.000000000000000
        0.000000000000000
        0.000000000000000
        0.000000000000000
        0.000000000000000
        0.000000000000000
        0.000000000000000
        0.000000000000000
        0.000000000000000
        0.000000000000000
        0.001234490486641
        0.001436020111682
        0.000000000000000
        0.000000000000000
        0.000000000000000
        0.000000000000000
        0.000000000000000
        0.000000000000000
        0.000000000000000
        0.001450126331417
        0.002125459014660
        0.001406863230520
        0.000000000000000
        0.000000000000000
        0.000000000000000
        0.000000000000000
        0.000000000000000
        0.000000000000000
        0.000000000000000
        0.001420969450254
        0.001190811726280
        0.000000000000000
        0.000000000000000
        0.000000000000000
        0.000000000000000
        0.000000000000000
        0.000000000000000
        0.000000000000000
        0.000000000000000
        0.000000000000000
        0.000000000000000
        0.000000000000000
        0.000000000000000
        0.000000000000000
        0.000000000000000
        0.000000000000000
        0.000000000000000
        0.000000000000000
        0.000000000000000
        0.000000000000000
        0.000000000000000
        0.000000000000000
        0.000000000000000
        0.000000000000000
        0.000000000000000
        0.000000000000000
        0.000000000000000
        0.000000000000000
        0.000000000000000
        0.000000000000000
        0.000000000000000
END_DATAGRID_3D
END_BLOCK_DATAGRID_3D
