ATOMS
         C    7.558905    7.558905    7.558905
         H    8.755769    8.755769    8.755769
         H    6.362040    6.362040    8.755769
         H    8.755769    6.362040    6.362040
         H    6.362040    8.755769    6.362040
BEGIN_BLOCK_DATAGRID_3D
units: coords = b, function = sqrt(b^-3)
BEGIN_DATAGRID_3D_function
      9      9      9
0.0 0.0 0.0
   15.117809    0.000000    0.000000
    0.000000   15.117809    0.000000
    0.000000    0.000000   15.117809
        0.000000000000000
        0.000000000000000
        0.000000000000000
        0.000000000000000
        0.000000000000000
        0.000000000000000
        0.000000000000000
        0.000000000000000
        0.000000000000000
        0.000000000000000
        0.000000000000000
        0.000000000000000
        0.000000000000000
        0.000000000000000
        0.000000000000000
        0.000000000000000
        0.000000000000000
        0.000000000000000
        0.000000000000000
        0.000000000000000
        0.000000000000000
        0.000000000000000
        0.000000000000000
        0.000000000000000
        0.000000000000000
        0.000000000000000
        0.000000000000000
        0.000000000000000
        0.000000000000000
        0.000000000000000
        0.000000000000000
       -0.000329654464589
       -0.000466710084796
        0.000000000000000
        0.000000000000000
        0.000000000000000
        0.000000000000000
        0.000000000000000
        0.000000000000000
        0.000349165987538
        0.000073171237837
       -0.000250811015133
        0.000000000000000
        0.000000000000000
        0.000000000000000
        0.000000000000000
        0.000000000000000
        0.000000000000000
        0.000550203750788
        0.000428009436994
        0.000000000000000
        0.000000000000000
        0.000000000000000
        0.000000000000000
        0.000000000000000
        0.000000000000000
        0.000000000000000
        0.000000000000000
        0.000000000000000
        0.000000000000000
        0.000000000000000
        0.000000000000000
        0.000000000000000
        0.000000000000000
        0.000000000000000
        0.000000000000000
        0.000000000000000
        0.000000000000000
        0.000000000000000
        0.000000000000000
        0.000000000000000
        0.000000000000000
        0.000000000000000
        0.000000000000000
        0.000000000000000
        0.000000000000000
        0.000000000000000
        0.000000000000000
        0.000000000000000
        0.000000000000000
        0.000000000000000
        0.000000000000000
        0.000000000000000
        0.000000000000000
        0.000000000000000
        0.000000000000000
        0.000000000000000
        0.000000000000000
        0.000000000000000
        0.000000000000000
        0.000000000000000
        0.000000000000000
        0.000000000000000
        0.000000000000000
       -0.000901562949836
       -0.000953257987607
        0.000000000000000
        0.000000000000000
        0.000000000000000
        0.000000000000000
        0.000000000000000
        0.000000000000000
       -0.000948207171626
       -0.002428870944466
       -0.002809701437326
       -0.001532120686060
        0.000000000000000
        0.000000000000000
        0.000000000000000
        0.000000000000000
        0.000455035088754
       -0.000360490106528
       -0.002788581649412
       -0.004027902406177
       -0.002521594775908
       -0.000796020330460
        0.000000000000000
        0.000000000000000
        0.000710900730535
        0.001984918405167
        0.002595395170363
        0.000425748755103
       -0.001971630911788
       -0.001722722632442
       -0.000646596730710
        0.000000000000000
        0.000000000000000
        0.000856205426518
        0.002751640173080
        0.004535338967486
        0.003412345907986
        0.000773914496660
       -0.000299923618979
        0.000000000000000
        0.000000000000000
        0.000000000000000
        0.000000000000000
        0.001638816200345
        0.003039746834497
        0.002691066717191
        0.001103318641401
        0.000000000000000
        0.000000000000000
        0.000000000000000
        0.000000000000000
        0.000000000000000
        0.000000000000000
        0.001013443083665
        0.000965866949660
        0.000000000000000
        0.000000000000000
        0.000000000000000
        0.000000000000000
        0.000000000000000
        0.000000000000000
        0.000000000000000
        0.000000000000000
        0.000000000000000
        0.000000000000000
        0.000000000000000
        0.000000000000000
        0.000000000000000
        0.000000000000000
        0.000000000000000
        0.000000000000000
        0.000000000000000
        0.000000000000000
        0.000000000000000
        0.000000000000000
        0.000000000000000
        0.000000000000000
        0.000000000000000
        0.000000000000000
        0.000000000000000
       -0.001729033287417
       -0.003549161211784
       -0.003638675756271
       -0.001884021051836
        0.000000000000000
        0.000000000000000
        0.000000000000000
        0.000000000000000
       -0.000729667411021
       -0.004532917561206
       -0.011086304860914
       -0.012373848549120
       -0.006345303438291
       -0.001739650494227
        0.000000000000000
        0.000000000000000
        0.000855988762554
        0.001613883124664
       -0.002423739337391
       -0.017027968403385
       -0.023463140536584
       -0.011057582109427
       -0.003010474294425
        0.000000000000000
        0.000000000000000
        0.002560186687463
        0.008398356223417
        0.014189262769447
        0.001939671161016
       -0.011744273099179
       -0.007581982373441
       -0.002383402889922
        0.000000000000000
        0.000000000000000
        0.003177317916107
        0.011788462268882
        0.025419256259229
        0.019472958073652
        0.003811539355613
       -0.001144190486514
       -0.000760408204338
        0.000000000000000
        0.000000000000000
        0.001819516796311
        0.006673200137763
        0.013104728708576
        0.011902678710890
        0.005002610199357
        0.000879155857945
        0.000000000000000
        0.000000000000000
        0.000000000000000
        0.000000000000000
        0.001963887353920
        0.003805519377954
        0.003725945009325
        0.001824613845633
        0.000000000000000
        0.000000000000000
        0.000000000000000
        0.000000000000000
        0.000000000000000
        0.000000000000000
        0.000000000000000
        0.000000000000000
        0.000000000000000
        0.000000000000000
        0.000000000000000
        0.000000000000000
        0.000000000000000
        0.000000000000000
        0.000000000000000
        0.000000000000000
       -0.001299364184786
       -0.001225891305480
        0.000000000000000
        0.000000000000000
        0.000000000000000
        0.000000000000000
        0.000000000000000
       -0.001252941933946
       -0.004400549792195
       -0.008195766907734
       -0.007854645072238
       -0.004052823357874
       -0.001179283995712
        0.000000000000000
        0.000000000000000
       -0.000071162144355
       -0.002447434005958
       -0.013027375879319
       -0.032344836890403
       -0.032971367689945
       -0.014265955404224
       -0.003712728557445
        0.000000000000000
        0.000000000000000
        0.001714077765345
        0.003021220739051
       -0.011094715362477
       -0.070676433616552
       -0.087612238330004
       -0.029070524753979
       -0.006284686566210
       -0.000914429804397
        0.000847111262382
        0.005371981084174
        0.022054464210308
        0.051285861059859
        0.005147239227697
       -0.045913037789934
       -0.020777246883747
       -0.005160465674464
       -0.000822687863759
        0.000940042785827
        0.006500368696403
        0.030301724367513
        0.092139644160338
        0.076049256886477
        0.013367712269769
       -0.002441851863715
       -0.001608671294924
        0.000000000000000
        0.000000000000000
        0.003826031658929
        0.014752226190352
        0.034202567303479
        0.033622054216964
        0.013606744754656
        0.002607488036963
        0.000096055852420
        0.000000000000000
        0.000000000000000
        0.001210248712356
        0.004166126459358
        0.008070327202430
        0.008407282317445
        0.004505956262617
        0.001277835642010
        0.000000000000000
        0.000000000000000
        0.000000000000000
        0.000000000000000
        0.000000000000000
        0.001251504286910
        0.001323787583409
        0.000000000000000
        0.000000000000000
        0.000000000000000
        0.000000000000000
        0.000000000000000
        0.000000000000000
        0.000000000000000
       -0.001069054311045
       -0.001846302592875
       -0.001412700076895
        0.000000000000000
        0.000000000000000
        0.000000000000000
        0.000000000000000
       -0.000354487054472
       -0.002051652902112
       -0.006369093863775
       -0.010742759774087
       -0.009370117361658
       -0.004564235380363
       -0.001268071824087
        0.000000000000000
        0.000000000000000
       -0.000356094352498
       -0.004475558499094
       -0.021753469839743
       -0.048943000005954
       -0.039940043912238
       -0.016123698811780
       -0.004104625370525
        0.000000000000000
        0.000398600683996
        0.001814677308360
        0.001428600088137
       -0.029297125435534
       -0.129878370424320
       -0.106273323111127
       -0.033656149209787
       -0.007151766866011
       -0.001014867205325
        0.001058819730661
        0.006160770208770
        0.028067887833797
        0.074482796981441
        0.000000000000001
       -0.074482796981442
       -0.028067887833798
       -0.006160770208770
       -0.001058819730661
        0.001024638671648
        0.007211463615043
        0.033951467007317
        0.107044221913525
        0.129878370424318
        0.028526226633134
       -0.001723917885667
       -0.001874374057393
       -0.000408372150319
        0.000000000000000
        0.004150181560287
        0.016288844231289
        0.040235361709767
        0.048943000005954
        0.021458152042213
        0.004310413079585
        0.000310538162735
        0.000000000000000
        0.000000000000000
        0.001284993982972
        0.004609791570125
        0.009429814110691
        0.010742759774086
        0.006309397114741
        0.002006096712349
        0.000337564895587
        0.000000000000000
        0.000000000000000
        0.000000000000000
        0.000000000000000
        0.001422471543218
        0.001846302592875
        0.001059282844722
        0.000000000000000
        0.000000000000000
        0.000000000000000
        0.000000000000000
        0.000000000000000
        0.000000000000000
       -0.000880873272589
       -0.001182390203154
        0.000000000000000
        0.000000000000000
        0.000000000000000
        0.000000000000000
        0.000000000000000
       -0.000339344118128
       -0.001751826472175
       -0.004949312692510
       -0.007543444317698
       -0.006031233870604
       -0.002660928014065
        0.000000000000000
        0.000000000000000
        0.000000000000000
       -0.000497174410202
       -0.004176071454516
       -0.016386571815061
       -0.029348676861578
       -0.021990465116223
       -0.009404145402884
       -0.002340586483633
        0.000000000000000
        0.000268146983134
        0.000842459702467
       -0.001995876553416
       -0.026626106825834
       -0.064894014930110
       -0.046258969057366
       -0.017640219793622
       -0.004373759976520
        0.000000000000000
        0.000576128093262
        0.003654159839229
        0.013325602885145
        0.026461235418131
       -0.005147239227698
       -0.031834058688059
       -0.014602820211707
       -0.003865675248940
       -0.000600551491884
        0.000000000000000
        0.004268353506098
        0.017060850918285
        0.043985972150071
        0.059521191660182
        0.022098700995498
        0.000764676939882
       -0.001058141832660
       -0.000293759964564
        0.000000000000000
        0.002315692775569
        0.009244091371879
        0.021411096240885
        0.028071459535016
        0.015155372201527
        0.003689800668388
        0.000383871308717
        0.000000000000000
        0.000000000000000
        0.000000000000000
        0.002636034306000
        0.005925827400182
        0.007331928907987
        0.004733630562317
        0.001638523370691
        0.000308379401484
        0.000000000000000
        0.000000000000000
        0.000000000000000
        0.000000000000000
        0.000000000000000
        0.001157966804531
        0.000855260291159
        0.000000000000000
        0.000000000000000
        0.000000000000000
        0.000000000000000
        0.000000000000000
        0.000000000000000
        0.000000000000000
        0.000000000000000
        0.000000000000000
        0.000000000000000
        0.000000000000000
        0.000000000000000
        0.000000000000000
        0.000000000000000
       -0.000808187123054
       -0.002165974073778
       -0.003066727070691
       -0.002184836660594
        0.000000000000000
        0.000000000000000
        0.000000000000000
        0.000000000000000
       -0.000275586161310
       -0.001928391859524
       -0.006068178309620
       -0.009512952449961
       -0.007318661847636
       -0.003042318895602
        0.000000000000000
        0.000000000000000
        0.000000000000000
        0.000151539332620
       -0.001212307533046
       -0.007603260770811
       -0.015199580718266
       -0.012195259717180
       -0.005652466879407
       -0.001484122426875
        0.000000000000000
        0.000000000000000
        0.001233900520326
        0.003414929508778
        0.004292629100578
       -0.001939671161017
       -0.006737618770846
       -0.004231303358754
       -0.001410684317867
        0.000000000000000
        0.000000000000000
        0.001388541868659
        0.005182774241256
        0.010807459698957
        0.012754591047998
        0.005647145048166
        0.000481427373590
       -0.000318382954303
        0.000000000000000
        0.000000000000000
        0.000000000000000
        0.002892830448678
        0.006848969209485
        0.008696578599984
        0.005337298150164
        0.001600495160052
        0.000195719859226
        0.000000000000000
        0.000000000000000
        0.000000000000000
        0.000000000000000
        0.002089256102378
        0.002889943273149
        0.001999130452095
        0.000728320820970
        0.000000000000000
        0.000000000000000
        0.000000000000000
        0.000000000000000
        0.000000000000000
        0.000000000000000
        0.000000000000000
        0.000000000000000
        0.000000000000000
        0.000000000000000
        0.000000000000000
        0.000000000000000
        0.000000000000000
        0.000000000000000
        0.000000000000000
        0.000000000000000
        0.000000000000000
        0.000000000000000
        0.000000000000000
        0.000000000000000
        0.000000000000000
        0.000000000000000
        0.000000000000000
       -0.000565370126233
       -0.000720995928723
        0.000000000000000
        0.000000000000000
        0.000000000000000
        0.000000000000000
        0.000000000000000
        0.000000000000000
       -0.000483115969478
       -0.001400201530321
       -0.002031848778556
       -0.001463541456362
        0.000000000000000
        0.000000000000000
        0.000000000000000
        0.000000000000000
        0.000014699167710
       -0.000337340185897
       -0.001414324457566
       -0.002548507908239
       -0.002299192104647
       -0.001083168753075
        0.000000000000000
        0.000000000000000
        0.000000000000000
        0.000219606197965
        0.000573220262846
        0.000465325076554
       -0.000425748755103
       -0.001089089335128
       -0.000835416035571
       -0.000283910197790
        0.000000000000000
        0.000000000000000
        0.000000000000000
        0.000928057283300
        0.001885767714515
        0.001924743649664
        0.000906887896257
        0.000107294788725
       -0.000074884263768
        0.000000000000000
        0.000000000000000
        0.000000000000000
        0.000000000000000
        0.001308429986587
        0.001769653005832
        0.001170156133149
        0.000376420455193
        0.000000000000000
        0.000000000000000
        0.000000000000000
        0.000000000000000
        0.000000000000000
        0.000000000000000
        0.000656691928899
        0.000505185030175
        0.000000000000000
        0.000000000000000
        0.000000000000000
        0.000000000000000
        0.000000000000000
        0.000000000000000
        0.000000000000000
        0.000000000000000
        0.000000000000000
        0.000000000000000
        0.000000000000000
        0.000000000000000
        0.000000000000000
        0.000000000000000
        0.000000000000000
        0.000000000000000
        0.000000000000000
        0.000000000000000
        0.000000000000000
        0.000000000000000
        0.000000000000000
        0.000000000000000
        0.000000000000000
        0.000000000000000
        0.000000000000000
        0.000000000000000
        0.000000000000000
        0.000000000000000
        0.000000000000000
        0.000000000000000
        0.000000000000000
        0.000000000000000
        0.000000000000000
        0.000000000000000
        0.000000000000000
        0.000000000000000
        0.000000000000000
        0.000000000000000
        0.000000000000000
        0.000000000000000
        0.000000000000000
        0.000000000000000
       -0.000179572736467
       -0.000286612056740
        0.000000000000000
        0.000000000000000
        0.000000000000000
        0.000000000000000
        0.000000000000000
        0.000000000000000
        0.000000000000000
        0.000004251244636
       -0.000073171237837
       -0.000102606217041
        0.000000000000000
        0.000000000000000
        0.000000000000000
        0.000000000000000
        0.000000000000000
        0.000000000000000
        0.000000000000000
        0.000188257084335
        0.000096079070475
        0.000000000000000
        0.000000000000000
        0.000000000000000
        0.000000000000000
        0.000000000000000
        0.000000000000000
        0.000000000000000
        0.000000000000000
        0.000000000000000
        0.000000000000000
        0.000000000000000
        0.000000000000000
        0.000000000000000
        0.000000000000000
        0.000000000000000
        0.000000000000000
        0.000000000000000
        0.000000000000000
        0.000000000000000
        0.000000000000000
        0.000000000000000
        0.000000000000000
        0.000000000000000
        0.000000000000000
        0.000000000000000
        0.000000000000000
        0.000000000000000
        0.000000000000000
        0.000000000000000
        0.000000000000000
END_DATAGRID_3D
END_BLOCK_DATAGRID_3D
