ATOMS
         C    7.558905    7.558905    7.558905
         H    8.755769    8.755769    8.755769
         H    6.362040    6.362040    8.755769
         H    8.755769    6.362040    6.362040
         H    6.362040    8.755769    6.362040
BEGIN_BLOCK_DATAGRID_3D
units: coords = b, function = 1/hbar/H*b^-2
BEGIN_DATAGRID_3D_function
      9      9      9
0.0 0.0 0.0
   15.117809    0.000000    0.000000
    0.000000   15.117809    0.000000
    0.000000    0.000000   15.117809
        0.000000000000000
        0.000000000000000
        0.000000000000000
        0.000000000000000
        0.000000000000000
        0.000000000000000
        0.000000000000000
        0.000000000000000
        0.000000000000000
        0.000000000000000
        0.000000000000000
        0.000000000000000
        0.000000000000000
        0.000000000000000
        0.000000000000000
        0.000000000000000
        0.000000000000000
        0.000000000000000
        0.000000000000000
        0.000000000000000
        0.000000000000000
        0.000000000000000
        0.000000000000000
        0.000000000000000
        0.000000000000000
        0.000000000000000
        0.000000000000000
        0.000000000000000
        0.000000000000000
        0.000000000000000
        0.000000000000000
       -0.000000002728119
        0.000000001758845
        0.000000000000000
        0.000000000000000
        0.000000000000000
        0.000000000000000
        0.000000000000000
        0.000000000000000
       -0.000000002031525
       -0.000000000002612
        0.000000002029764
        0.000000000000000
        0.000000000000000
        0.000000000000000
        0.000000000000000
        0.000000000000000
        0.000000000000000
       -0.000000001762966
        0.000000002721040
        0.000000000000000
        0.000000000000000
        0.000000000000000
        0.000000000000000
        0.000000000000000
        0.000000000000000
        0.000000000000000
        0.000000000000000
        0.000000000000000
        0.000000000000000
        0.000000000000000
        0.000000000000000
        0.000000000000000
        0.000000000000000
        0.000000000000000
        0.000000000000000
        0.000000000000000
        0.000000000000000
        0.000000000000000
        0.000000000000000
        0.000000000000000
        0.000000000000000
        0.000000000000000
        0.000000000000000
        0.000000000000000
        0.000000000000000
        0.000000000000000
        0.000000000000000
        0.000000000000000
        0.000000000000000
        0.000000000000000
        0.000000000000000
        0.000000000000000
        0.000000000000000
        0.000000000000000
        0.000000000000000
        0.000000000000000
        0.000000000000000
        0.000000000000000
        0.000000000000000
        0.000000000000000
        0.000000000000000
        0.000000000000000
        0.000000000000000
       -0.000000001597851
        0.000000001459473
        0.000000000000000
        0.000000000000000
        0.000000000000000
        0.000000000000000
        0.000000000000000
        0.000000000000000
       -0.000000004778496
       -0.000000001511407
        0.000000000623152
        0.000000003487306
        0.000000000000000
        0.000000000000000
        0.000000000000000
        0.000000000000000
       -0.000000003844651
       -0.000000010610689
       -0.000000023684394
        0.000000019296931
        0.000000009518438
       -0.000000000150251
        0.000000000000000
        0.000000000000000
        0.000000000230347
       -0.000000007239214
       -0.000000041689973
       -0.000000000060020
        0.000000041770909
        0.000000007290287
       -0.000000000227402
        0.000000000000000
        0.000000000000000
        0.000000000153194
       -0.000000009462976
       -0.000000019299788
        0.000000023670769
        0.000000010640018
        0.000000003865214
        0.000000000000000
        0.000000000000000
        0.000000000000000
        0.000000000000000
       -0.000000003478840
       -0.000000000617786
        0.000000001509652
        0.000000004791596
        0.000000000000000
        0.000000000000000
        0.000000000000000
        0.000000000000000
        0.000000000000000
        0.000000000000000
       -0.000000001460389
        0.000000001597484
        0.000000000000000
        0.000000000000000
        0.000000000000000
        0.000000000000000
        0.000000000000000
        0.000000000000000
        0.000000000000000
        0.000000000000000
        0.000000000000000
        0.000000000000000
        0.000000000000000
        0.000000000000000
        0.000000000000000
        0.000000000000000
        0.000000000000000
        0.000000000000000
        0.000000000000000
        0.000000000000000
        0.000000000000000
        0.000000000000000
        0.000000000000000
        0.000000000000000
        0.000000000000000
        0.000000000000000
        0.000000000000000
       -0.000000003323531
       -0.000000002901392
        0.000000001977710
        0.000000002050382
        0.000000000000000
        0.000000000000000
        0.000000000000000
        0.000000000000000
       -0.000000006868476
        0.000000003141803
        0.000000025239033
       -0.000000023199332
       -0.000000012934493
        0.000000001506839
        0.000000000000000
        0.000000000000000
       -0.000000000816786
       -0.000000007172175
        0.000000286114418
        0.000000461290514
       -0.000000427995882
       -0.000000265625782
        0.000000011931662
        0.000000000000000
        0.000000000000000
       -0.000000009883700
        0.000000163338721
        0.000001101562140
        0.000000001235388
       -0.000001105100102
       -0.000000164945788
        0.000000009969096
        0.000000000000000
        0.000000000000000
       -0.000000011868550
        0.000000263744326
        0.000000429340923
       -0.000000460719269
       -0.000000287865243
        0.000000007051378
        0.000000000837467
        0.000000000000000
        0.000000000000000
       -0.000000001497973
        0.000000012806607
        0.000000023468154
       -0.000000025150142
       -0.000000003273927
        0.000000006897176
        0.000000000000000
        0.000000000000000
        0.000000000000000
        0.000000000000000
       -0.000000002048685
       -0.000000001973781
        0.000000002902406
        0.000000003327627
        0.000000000000000
        0.000000000000000
        0.000000000000000
        0.000000000000000
        0.000000000000000
        0.000000000000000
        0.000000000000000
        0.000000000000000
        0.000000000000000
        0.000000000000000
        0.000000000000000
        0.000000000000000
        0.000000000000000
        0.000000000000000
        0.000000000000000
        0.000000000000000
       -0.000000001014571
       -0.000000000025669
        0.000000000000000
        0.000000000000000
        0.000000000000000
        0.000000000000000
        0.000000000000000
       -0.000000002274830
       -0.000000005878173
        0.000000001115667
       -0.000000000712994
        0.000000002826565
       -0.000000000012411
        0.000000000000000
        0.000000000000000
       -0.000000001429308
       -0.000000000924564
        0.000000073600860
       -0.000000042856837
       -0.000000150888798
       -0.000000012630642
        0.000000001285733
        0.000000000000000
        0.000000000000000
       -0.000000016180808
        0.000000266717115
        0.000000777478965
       -0.000001376634671
       -0.000002504685731
       -0.000000239619786
        0.000000011972503
       -0.000000000110334
       -0.000000000663549
       -0.000000031468445
        0.000000901137629
        0.000002549080010
        0.000000025348138
       -0.000002570035801
       -0.000000907306045
        0.000000031530483
        0.000000000677857
        0.000000000109967
       -0.000000011865820
        0.000000237479353
        0.000002491463994
        0.000001388121898
       -0.000000780329329
       -0.000000268894913
        0.000000016259878
        0.000000000000000
        0.000000000000000
       -0.000000001263199
        0.000000012534139
        0.000000150095859
        0.000000043727858
       -0.000000073957447
        0.000000000813588
        0.000000001442941
        0.000000000000000
        0.000000000000000
        0.000000000012479
       -0.000000002815686
        0.000000000730320
       -0.000000001091523
        0.000000005882570
        0.000000002280731
        0.000000000000000
        0.000000000000000
        0.000000000000000
        0.000000000000000
        0.000000000000000
        0.000000000025570
        0.000000001013430
        0.000000000000000
        0.000000000000000
        0.000000000000000
        0.000000000000000
        0.000000000000000
        0.000000000000000
        0.000000000000000
       -0.000000000025570
       -0.000000003009024
       -0.000000000025669
        0.000000000000000
        0.000000000000000
        0.000000000000000
        0.000000000000000
       -0.000000000012479
       -0.000000004079686
        0.000000001504058
       -0.000000000771365
        0.000000001515589
       -0.000000004080030
       -0.000000000012411
        0.000000000000000
        0.000000000000000
       -0.000000003266687
        0.000000028018343
       -0.000000055356878
       -0.000000154399467
       -0.000000056309798
        0.000000028302564
       -0.000000003278795
        0.000000000000000
       -0.000000000109967
       -0.000000020381105
        0.000000402352561
       -0.000001273371099
       -0.000003303855127
       -0.000001285975106
        0.000000404836523
       -0.000000020394955
       -0.000000000110334
       -0.000000000000000
        0.000000000000000
        0.000000000000000
       -0.000000000000000
        0.000000000000000
       -0.000000000000000
       -0.000000000000000
        0.000000000000000
        0.000000000000000
        0.000000000109967
        0.000000020381105
       -0.000000402352561
        0.000001273371099
        0.000003303855127
        0.000001285975106
       -0.000000404836523
        0.000000020394955
        0.000000000110334
        0.000000000000000
        0.000000003266687
       -0.000000028018343
        0.000000055356878
        0.000000154399467
        0.000000056309798
       -0.000000028302564
        0.000000003278795
        0.000000000000000
        0.000000000000000
        0.000000000012479
        0.000000004079686
       -0.000000001504058
        0.000000000771365
       -0.000000001515589
        0.000000004080030
        0.000000000012411
        0.000000000000000
        0.000000000000000
        0.000000000000000
        0.000000000000000
        0.000000000025570
        0.000000003009024
        0.000000000025669
        0.000000000000000
        0.000000000000000
        0.000000000000000
        0.000000000000000
        0.000000000000000
        0.000000000000000
       -0.000000000025570
       -0.000000001013430
        0.000000000000000
        0.000000000000000
        0.000000000000000
        0.000000000000000
        0.000000000000000
       -0.000000000012479
        0.000000002815686
       -0.000000000730320
        0.000000001091523
       -0.000000005882570
       -0.000000002280731
        0.000000000000000
        0.000000000000000
        0.000000000000000
        0.000000001263199
       -0.000000012534139
       -0.000000150095859
       -0.000000043727858
        0.000000073957447
       -0.000000000813588
       -0.000000001442941
        0.000000000000000
       -0.000000000109967
        0.000000011865820
       -0.000000237479353
       -0.000002491463994
       -0.000001388121898
        0.000000780329329
        0.000000268894913
       -0.000000016259878
        0.000000000000000
        0.000000000663549
        0.000000031468445
       -0.000000901137629
       -0.000002549080010
       -0.000000025348138
        0.000002570035801
        0.000000907306045
       -0.000000031530483
       -0.000000000677857
        0.000000000000000
        0.000000016180808
       -0.000000266717115
       -0.000000777478965
        0.000001376634671
        0.000002504685731
        0.000000239619786
       -0.000000011972503
        0.000000000110334
        0.000000000000000
        0.000000001429308
        0.000000000924564
       -0.000000073600860
        0.000000042856837
        0.000000150888798
        0.000000012630642
       -0.000000001285733
        0.000000000000000
        0.000000000000000
        0.000000000000000
        0.000000002274830
        0.000000005878173
       -0.000000001115667
        0.000000000712994
       -0.000000002826565
        0.000000000012411
        0.000000000000000
        0.000000000000000
        0.000000000000000
        0.000000000000000
        0.000000000000000
        0.000000001014571
        0.000000000025669
        0.000000000000000
        0.000000000000000
        0.000000000000000
        0.000000000000000
        0.000000000000000
        0.000000000000000
        0.000000000000000
        0.000000000000000
        0.000000000000000
        0.000000000000000
        0.000000000000000
        0.000000000000000
        0.000000000000000
        0.000000000000000
        0.000000002048685
        0.000000001973781
       -0.000000002902406
       -0.000000003327627
        0.000000000000000
        0.000000000000000
        0.000000000000000
        0.000000000000000
        0.000000001497973
       -0.000000012806607
       -0.000000023468154
        0.000000025150142
        0.000000003273927
       -0.000000006897176
        0.000000000000000
        0.000000000000000
        0.000000000000000
        0.000000011868550
       -0.000000263744326
       -0.000000429340923
        0.000000460719269
        0.000000287865243
       -0.000000007051378
       -0.000000000837467
        0.000000000000000
        0.000000000000000
        0.000000009883700
       -0.000000163338721
       -0.000001101562140
       -0.000000001235388
        0.000001105100102
        0.000000164945788
       -0.000000009969096
        0.000000000000000
        0.000000000000000
        0.000000000816786
        0.000000007172175
       -0.000000286114418
       -0.000000461290514
        0.000000427995882
        0.000000265625782
       -0.000000011931662
        0.000000000000000
        0.000000000000000
        0.000000000000000
        0.000000006868476
       -0.000000003141803
       -0.000000025239033
        0.000000023199332
        0.000000012934493
       -0.000000001506839
        0.000000000000000
        0.000000000000000
        0.000000000000000
        0.000000000000000
        0.000000003323531
        0.000000002901392
       -0.000000001977710
       -0.000000002050382
        0.000000000000000
        0.000000000000000
        0.000000000000000
        0.000000000000000
        0.000000000000000
        0.000000000000000
        0.000000000000000
        0.000000000000000
        0.000000000000000
        0.000000000000000
        0.000000000000000
        0.000000000000000
        0.000000000000000
        0.000000000000000
        0.000000000000000
        0.000000000000000
        0.000000000000000
        0.000000000000000
        0.000000000000000
        0.000000000000000
        0.000000000000000
        0.000000000000000
        0.000000000000000
        0.000000001460389
       -0.000000001597484
        0.000000000000000
        0.000000000000000
        0.000000000000000
        0.000000000000000
        0.000000000000000
        0.000000000000000
        0.000000003478840
        0.000000000617786
       -0.000000001509652
       -0.000000004791596
        0.000000000000000
        0.000000000000000
        0.000000000000000
        0.000000000000000
       -0.000000000153194
        0.000000009462976
        0.000000019299788
       -0.000000023670769
       -0.000000010640018
       -0.000000003865214
        0.000000000000000
        0.000000000000000
        0.000000000000000
       -0.000000000230347
        0.000000007239214
        0.000000041689973
        0.000000000060020
       -0.000000041770909
       -0.000000007290287
        0.000000000227402
        0.000000000000000
        0.000000000000000
        0.000000000000000
        0.000000003844651
        0.000000010610689
        0.000000023684394
       -0.000000019296931
       -0.000000009518438
        0.000000000150251
        0.000000000000000
        0.000000000000000
        0.000000000000000
        0.000000000000000
        0.000000004778496
        0.000000001511407
       -0.000000000623152
       -0.000000003487306
        0.000000000000000
        0.000000000000000
        0.000000000000000
        0.000000000000000
        0.000000000000000
        0.000000000000000
        0.000000001597851
       -0.000000001459473
        0.000000000000000
        0.000000000000000
        0.000000000000000
        0.000000000000000
        0.000000000000000
        0.000000000000000
        0.000000000000000
        0.000000000000000
        0.000000000000000
        0.000000000000000
        0.000000000000000
        0.000000000000000
        0.000000000000000
        0.000000000000000
        0.000000000000000
        0.000000000000000
        0.000000000000000
        0.000000000000000
        0.000000000000000
        0.000000000000000
        0.000000000000000
        0.000000000000000
        0.000000000000000
        0.000000000000000
        0.000000000000000
        0.000000000000000
        0.000000000000000
        0.000000000000000
        0.000000000000000
        0.000000000000000
        0.000000000000000
        0.000000000000000
        0.000000000000000
        0.000000000000000
        0.000000000000000
        0.000000000000000
        0.000000000000000
        0.000000000000000
        0.000000000000000
        0.000000000000000
        0.000000000000000
        0.000000000000000
        0.000000001762966
       -0.000000002721040
        0.000000000000000
        0.000000000000000
        0.000000000000000
        0.000000000000000
        0.000000000000000
        0.000000000000000
        0.000000000000000
        0.000000002031525
        0.000000000002612
       -0.000000002029764
        0.000000000000000
        0.000000000000000
        0.000000000000000
        0.000000000000000
        0.000000000000000
        0.000000000000000
        0.000000000000000
        0.000000002728119
       -0.000000001758845
        0.000000000000000
        0.000000000000000
        0.000000000000000
        0.000000000000000
        0.000000000000000
        0.000000000000000
        0.000000000000000
        0.000000000000000
        0.000000000000000
        0.000000000000000
        0.000000000000000
        0.000000000000000
        0.000000000000000
        0.000000000000000
        0.000000000000000
        0.000000000000000
        0.000000000000000
        0.000000000000000
        0.000000000000000
        0.000000000000000
        0.000000000000000
        0.000000000000000
        0.000000000000000
        0.000000000000000
        0.000000000000000
        0.000000000000000
        0.000000000000000
        0.000000000000000
        0.000000000000000
        0.000000000000000
END_DATAGRID_3D
END_BLOCK_DATAGRID_3D
