ATOMS
         C    7.558905    7.558905    7.558905
         H    8.755769    8.755769    8.755769
         H    6.362040    6.362040    8.755769
         H    8.755769    6.362040    6.362040
         H    6.362040    8.755769    6.362040
BEGIN_BLOCK_DATAGRID_3D
units: coords = b, function = sqrt(b^-3)
BEGIN_DATAGRID_3D_function
      9      9      9
0.0 0.0 0.0
   15.117809    0.000000    0.000000
    0.000000   15.117809    0.000000
    0.000000    0.000000   15.117809
        0.000000000000000
        0.000000000000000
        0.000000000000000
        0.000000000000000
        0.000000000000000
        0.000000000000000
        0.000000000000000
        0.000000000000000
        0.000000000000000
        0.000000000000000
        0.000000000000000
        0.000000000000000
        0.000000000000000
        0.000000000000000
        0.000000000000000
        0.000000000000000
        0.000000000000000
        0.000000000000000
        0.000000000000000
        0.000000000000000
        0.000000000000000
        0.000000000000000
        0.000000000000000
        0.000000000000000
        0.000000000000000
        0.000000000000000
        0.000000000000000
        0.000000000000000
        0.000000000000000
        0.000000000000000
        0.000000000000000
        0.000667639364551
        0.000464868826775
        0.000000000000000
        0.000000000000000
        0.000000000000000
        0.000000000000000
        0.000000000000000
        0.000000000000000
        0.001069368198933
        0.001336596658914
        0.000724244378117
        0.000000000000000
        0.000000000000000
        0.000000000000000
        0.000000000000000
        0.000000000000000
        0.000000000000000
        0.001065046296002
        0.001125668823632
        0.000000000000000
        0.000000000000000
        0.000000000000000
        0.000000000000000
        0.000000000000000
        0.000000000000000
        0.000000000000000
        0.000000000000000
        0.000000000000000
        0.000000000000000
        0.000000000000000
        0.000000000000000
        0.000000000000000
        0.000000000000000
        0.000000000000000
        0.000000000000000
        0.000000000000000
        0.000000000000000
        0.000000000000000
        0.000000000000000
        0.000000000000000
        0.000000000000000
        0.000000000000000
        0.000000000000000
        0.000000000000000
        0.000000000000000
        0.000000000000000
        0.000000000000000
        0.000000000000000
        0.000000000000000
        0.000000000000000
        0.000000000000000
        0.000000000000000
        0.000000000000000
        0.000000000000000
        0.000000000000000
        0.000000000000000
        0.000000000000000
        0.000000000000000
        0.000000000000000
        0.000000000000000
        0.000000000000000
        0.000000000000000
        0.000000000000000
        0.000021022343279
       -0.000038623367031
        0.000000000000000
        0.000000000000000
        0.000000000000000
        0.000000000000000
        0.000000000000000
        0.000000000000000
        0.000766419002889
        0.000835199459824
        0.000360982149837
        0.000040577710885
        0.000000000000000
        0.000000000000000
        0.000000000000000
        0.000000000000000
        0.001596570898625
        0.003353870629777
        0.003805166918260
        0.002102373770094
        0.000568557983475
        0.000075442454013
        0.000000000000000
        0.000000000000000
        0.000978439846768
        0.003443862456679
        0.006982857780308
        0.007756211239835
        0.004388652327786
        0.001341345308186
        0.000205236155376
        0.000000000000000
        0.000000000000000
        0.001034891102287
        0.003645887550328
        0.007152757693138
        0.007560983468550
        0.004159789110917
        0.001230340942307
        0.000000000000000
        0.000000000000000
        0.000000000000000
        0.000000000000000
        0.001915992399084
        0.003848034683544
        0.003941562209645
        0.002056955553177
        0.000000000000000
        0.000000000000000
        0.000000000000000
        0.000000000000000
        0.000000000000000
        0.000000000000000
        0.001145166098256
        0.001158699545745
        0.000000000000000
        0.000000000000000
        0.000000000000000
        0.000000000000000
        0.000000000000000
        0.000000000000000
        0.000000000000000
        0.000000000000000
        0.000000000000000
        0.000000000000000
        0.000000000000000
        0.000000000000000
        0.000000000000000
        0.000000000000000
        0.000000000000000
        0.000000000000000
        0.000000000000000
        0.000000000000000
        0.000000000000000
        0.000000000000000
        0.000000000000000
        0.000000000000000
        0.000000000000000
        0.000000000000000
        0.000000000000000
       -0.000236478477668
       -0.000597524240545
       -0.000701083089219
       -0.000406098250145
        0.000000000000000
        0.000000000000000
        0.000000000000000
        0.000000000000000
        0.000780819764961
        0.001250653740930
        0.000462336973711
       -0.000891893326651
       -0.000820578154300
       -0.000302022753290
        0.000000000000000
        0.000000000000000
        0.001286421668222
        0.004868414913949
        0.010426356776447
        0.011259932494182
        0.003511016877813
        0.000058306396254
       -0.000245530656143
        0.000000000000000
        0.000000000000000
        0.003002012359346
        0.011950909565221
        0.029657716641348
        0.035520493499759
        0.015077128636749
        0.002994381479261
        0.000244078097426
        0.000000000000000
        0.000000000000000
        0.003319792214959
        0.013334928520045
        0.032297946436706
        0.033452608686876
        0.014912822800445
        0.003686507355551
        0.000462786834689
        0.000000000000000
        0.000000000000000
        0.001779589464877
        0.006843704141020
        0.014270248618867
        0.014453044286536
        0.007289407882200
        0.001936344893193
        0.000000000000000
        0.000000000000000
        0.000000000000000
        0.000000000000000
        0.001880000727794
        0.003762796536449
        0.003827082069730
        0.001977103339732
        0.000000000000000
        0.000000000000000
        0.000000000000000
        0.000000000000000
        0.000000000000000
        0.000000000000000
        0.000000000000000
        0.000000000000000
        0.000000000000000
        0.000000000000000
        0.000000000000000
        0.000000000000000
        0.000000000000000
        0.000000000000000
        0.000000000000000
        0.000000000000000
       -0.000577953452776
       -0.000515207436054
        0.000000000000000
        0.000000000000000
        0.000000000000000
        0.000000000000000
        0.000000000000000
       -0.000611490079995
       -0.001840136478284
       -0.003141230496528
       -0.002793100265656
       -0.001391352904392
       -0.000416701081621
        0.000000000000000
        0.000000000000000
        0.000080937445606
       -0.000381013822711
       -0.003275648504967
       -0.008513631728703
       -0.008712700833642
       -0.004042695161815
       -0.001143580360567
        0.000000000000000
        0.000000000000000
        0.001744124236403
        0.006170758132836
        0.011896584997076
        0.004297402339312
       -0.011357513854676
       -0.005877016935078
       -0.001652573429246
       -0.000286141333918
        0.000685366200718
        0.004836632806190
        0.023518128308394
        0.076115792980476
        0.094236306010070
        0.022326063882425
       -0.000101069681762
       -0.000935443324117
       -0.000230147427009
        0.000764207447478
        0.005645926295811
        0.028501705996762
        0.094358786734154
        0.094071779790121
        0.029654178770658
        0.004405591651625
        0.000182957450717
        0.000000000000000
        0.000000000000000
        0.003247069671612
        0.013004567896060
        0.031317832500480
        0.031872862388534
        0.013822226738034
        0.003270608450961
        0.000367732066307
        0.000000000000000
        0.000000000000000
        0.000995040834702
        0.003487907216859
        0.006759939367157
        0.007005976134571
        0.003746620364845
        0.001055400586035
        0.000000000000000
        0.000000000000000
        0.000000000000000
        0.000000000000000
        0.000000000000000
        0.000986470313689
        0.001025994140136
        0.000000000000000
        0.000000000000000
        0.000000000000000
        0.000000000000000
        0.000000000000000
        0.000000000000000
        0.000000000000000
       -0.000760221546917
       -0.001138522096906
       -0.000767119558226
        0.000000000000000
        0.000000000000000
        0.000000000000000
        0.000000000000000
       -0.000411585943729
       -0.001777783308494
       -0.004580931371570
       -0.006606147509396
       -0.005097892159088
       -0.002287342308734
       -0.000591182455896
        0.000000000000000
        0.000000000000000
       -0.000788571818134
       -0.004728872313923
       -0.016835059111341
       -0.030247263576420
       -0.021224096223314
       -0.007955112641868
       -0.001952689712871
        0.000000000000000
        0.000100637449533
        0.000213785119721
       -0.003198784294206
       -0.028145287055207
       -0.080235177558879
       -0.055507950019962
       -0.016629497257514
       -0.003476901427992
       -0.000475590708969
        0.000571339891570
        0.003305736024770
        0.015081804121732
        0.039992183390288
       -0.000010924004451
       -0.039773474333979
       -0.014985322958208
       -0.003259822982273
       -0.000559972211440
        0.000665490246532
        0.004630693899208
        0.022188951966753
        0.069885594227894
        0.080300359903531
        0.014019596500597
       -0.002222389279937
       -0.001299614782613
       -0.000276069664646
        0.000000000000000
        0.002824132466952
        0.011069150843364
        0.026748661499780
        0.030267118703625
        0.011376101580292
        0.001672313654894
       -0.000054705184542
        0.000000000000000
        0.000000000000000
        0.000913982034459
        0.003151424659308
        0.006221770270036
        0.006608943537498
        0.003468956532103
        0.000927915733638
        0.000095639881037
        0.000000000000000
        0.000000000000000
        0.000000000000000
        0.000000000000000
        0.000949838424130
        0.001138898436262
        0.000578571046239
        0.000000000000000
        0.000000000000000
        0.000000000000000
        0.000000000000000
        0.000000000000000
        0.000000000000000
       -0.000787628805516
       -0.000949703946950
        0.000000000000000
        0.000000000000000
        0.000000000000000
        0.000000000000000
        0.000000000000000
       -0.000524393785773
       -0.002189757212874
       -0.005084747308779
       -0.006539371333210
       -0.004554654955411
       -0.001790088444278
        0.000000000000000
        0.000000000000000
        0.000000000000000
       -0.001456595219088
       -0.007331487754336
       -0.021756154264463
       -0.029561269674347
       -0.018278652962560
       -0.006871924816456
       -0.001555545794463
        0.000000000000000
       -0.000110964097545
       -0.001705845947451
       -0.013315805230903
       -0.059211525210464
       -0.088030150873766
       -0.047178037521949
       -0.015086062809073
       -0.003341648675819
        0.000000000000000
        0.000080761495347
        0.000007846212740
       -0.004527960635847
       -0.034375485807788
       -0.094171123665416
       -0.063814417401790
       -0.018750816855689
       -0.003841072886488
       -0.000521512946605
        0.000000000000000
        0.001458701139108
        0.004601568224277
        0.005745854665343
       -0.010239125918732
       -0.023579818436316
       -0.009197593808605
       -0.002231890027667
       -0.000354803566177
        0.000000000000000
        0.001123101840054
        0.004017839801959
        0.007766244914519
        0.006228864918168
       -0.000788939158017
       -0.001579953679303
       -0.000622012918123
        0.000000000000000
        0.000000000000000
        0.000000000000000
        0.001353316875374
        0.002654873766013
        0.002679050202175
        0.001129300652385
        0.000106560350755
       -0.000047501352561
        0.000000000000000
        0.000000000000000
        0.000000000000000
        0.000000000000000
        0.000000000000000
        0.000502104371816
        0.000317393838766
        0.000000000000000
        0.000000000000000
        0.000000000000000
        0.000000000000000
        0.000000000000000
        0.000000000000000
        0.000000000000000
        0.000000000000000
        0.000000000000000
        0.000000000000000
        0.000000000000000
        0.000000000000000
        0.000000000000000
        0.000000000000000
       -0.001257246968293
       -0.002881854099974
       -0.003470844090290
       -0.002166913257661
        0.000000000000000
        0.000000000000000
        0.000000000000000
        0.000000000000000
       -0.000949073826467
       -0.004295692798950
       -0.010492951646419
       -0.013163304863758
       -0.008512880948156
       -0.003082858141994
        0.000000000000000
        0.000000000000000
        0.000000000000000
       -0.001529317762434
       -0.007661848378322
       -0.022736268200688
       -0.031141015972689
       -0.019369249024972
       -0.007287823721046
       -0.001650600562845
        0.000000000000000
        0.000000000000000
       -0.000966451710528
       -0.005610631035779
       -0.019744114252909
       -0.035500638372554
       -0.024925123279770
       -0.009277180466235
       -0.002251472994838
        0.000000000000000
        0.000000000000000
       -0.000082382382563
       -0.001231588934701
       -0.005935760366895
       -0.013544699304717
       -0.013012656869471
       -0.005680955237372
       -0.001520062622546
        0.000000000000000
        0.000000000000000
        0.000000000000000
        0.000376672008239
       -0.000016387413208
       -0.001742806595086
       -0.002861042018496
       -0.001702872515692
       -0.000517182299035
        0.000000000000000
        0.000000000000000
        0.000000000000000
        0.000000000000000
        0.000427899468025
        0.000243305724948
       -0.000174105697569
       -0.000210776177000
        0.000000000000000
        0.000000000000000
        0.000000000000000
        0.000000000000000
        0.000000000000000
        0.000000000000000
        0.000000000000000
        0.000000000000000
        0.000000000000000
        0.000000000000000
        0.000000000000000
        0.000000000000000
        0.000000000000000
        0.000000000000000
        0.000000000000000
        0.000000000000000
        0.000000000000000
        0.000000000000000
        0.000000000000000
        0.000000000000000
        0.000000000000000
        0.000000000000000
        0.000000000000000
       -0.000903646149313
       -0.001025983203734
        0.000000000000000
        0.000000000000000
        0.000000000000000
        0.000000000000000
        0.000000000000000
        0.000000000000000
       -0.001293238639584
       -0.002967092247069
       -0.003585324230206
       -0.002246765471106
        0.000000000000000
        0.000000000000000
        0.000000000000000
        0.000000000000000
       -0.000564244053357
       -0.002347737546344
       -0.005477565634760
       -0.007094378667189
       -0.004967823701483
       -0.001965028800550
        0.000000000000000
        0.000000000000000
        0.000000000000000
       -0.000476043756038
       -0.002070221105865
       -0.005342018881842
       -0.007753415211734
       -0.006017587954770
       -0.002700771883283
       -0.000700778730234
        0.000000000000000
        0.000000000000000
        0.000000000000000
       -0.000854744103247
       -0.002539133342049
       -0.004267347212612
       -0.003766173383365
       -0.001853350537112
       -0.000539644888195
        0.000000000000000
        0.000000000000000
        0.000000000000000
        0.000000000000000
       -0.000574998012532
       -0.001189417975420
       -0.001236170936625
       -0.000657452138030
        0.000000000000000
        0.000000000000000
        0.000000000000000
        0.000000000000000
        0.000000000000000
        0.000000000000000
       -0.000153222172020
       -0.000201668423534
        0.000000000000000
        0.000000000000000
        0.000000000000000
        0.000000000000000
        0.000000000000000
        0.000000000000000
        0.000000000000000
        0.000000000000000
        0.000000000000000
        0.000000000000000
        0.000000000000000
        0.000000000000000
        0.000000000000000
        0.000000000000000
        0.000000000000000
        0.000000000000000
        0.000000000000000
        0.000000000000000
        0.000000000000000
        0.000000000000000
        0.000000000000000
        0.000000000000000
        0.000000000000000
        0.000000000000000
        0.000000000000000
        0.000000000000000
        0.000000000000000
        0.000000000000000
        0.000000000000000
        0.000000000000000
        0.000000000000000
        0.000000000000000
        0.000000000000000
        0.000000000000000
        0.000000000000000
        0.000000000000000
        0.000000000000000
        0.000000000000000
        0.000000000000000
        0.000000000000000
        0.000000000000000
        0.000000000000000
       -0.000866204787829
       -0.001049378630446
        0.000000000000000
        0.000000000000000
        0.000000000000000
        0.000000000000000
        0.000000000000000
        0.000000000000000
        0.000000000000000
       -0.000879751321720
       -0.001336220319558
       -0.000912792890104
        0.000000000000000
        0.000000000000000
        0.000000000000000
        0.000000000000000
        0.000000000000000
        0.000000000000000
        0.000000000000000
       -0.000743488445511
       -0.000662682424063
        0.000000000000000
        0.000000000000000
        0.000000000000000
        0.000000000000000
        0.000000000000000
        0.000000000000000
        0.000000000000000
        0.000000000000000
        0.000000000000000
        0.000000000000000
        0.000000000000000
        0.000000000000000
        0.000000000000000
        0.000000000000000
        0.000000000000000
        0.000000000000000
        0.000000000000000
        0.000000000000000
        0.000000000000000
        0.000000000000000
        0.000000000000000
        0.000000000000000
        0.000000000000000
        0.000000000000000
        0.000000000000000
        0.000000000000000
        0.000000000000000
        0.000000000000000
        0.000000000000000
        0.000000000000000
END_DATAGRID_3D
END_BLOCK_DATAGRID_3D
