ATOMS
         C    7.558905    7.558905    7.558905
         H    8.755769    8.755769    8.755769
         H    6.362040    6.362040    8.755769
         H    8.755769    6.362040    6.362040
         H    6.362040    8.755769    6.362040
BEGIN_BLOCK_DATAGRID_3D
units: coords = b, function = 1/hbar/H*b^-2
BEGIN_DATAGRID_3D_function
      9      9      9
0.0 0.0 0.0
   15.117809    0.000000    0.000000
    0.000000   15.117809    0.000000
    0.000000    0.000000   15.117809
        0.000000000000000
        0.000000000000000
        0.000000000000000
        0.000000000000000
        0.000000000000000
        0.000000000000000
        0.000000000000000
        0.000000000000000
        0.000000000000000
        0.000000000000000
        0.000000000000000
        0.000000000000000
        0.000000000000000
        0.000000000000000
        0.000000000000000
        0.000000000000000
        0.000000000000000
        0.000000000000000
        0.000000000000000
        0.000000000000000
        0.000000000000000
        0.000000000000000
        0.000000000000000
        0.000000000000000
        0.000000000000000
        0.000000000000000
        0.000000000000000
        0.000000000000000
        0.000000000000000
        0.000000000000000
        0.000000000000000
       -0.000000000232431
        0.000000000158920
        0.000000000000000
        0.000000000000000
        0.000000000000000
        0.000000000000000
        0.000000000000000
        0.000000000000000
       -0.000000000104591
       -0.000000000002498
        0.000000000102975
        0.000000000000000
        0.000000000000000
        0.000000000000000
        0.000000000000000
        0.000000000000000
        0.000000000000000
       -0.000000000160938
        0.000000000230793
        0.000000000000000
        0.000000000000000
        0.000000000000000
        0.000000000000000
        0.000000000000000
        0.000000000000000
        0.000000000000000
        0.000000000000000
        0.000000000000000
        0.000000000000000
        0.000000000000000
        0.000000000000000
        0.000000000000000
        0.000000000000000
        0.000000000000000
        0.000000000000000
        0.000000000000000
        0.000000000000000
        0.000000000000000
        0.000000000000000
        0.000000000000000
        0.000000000000000
        0.000000000000000
        0.000000000000000
        0.000000000000000
        0.000000000000000
        0.000000000000000
        0.000000000000000
        0.000000000000000
        0.000000000000000
        0.000000000000000
        0.000000000000000
        0.000000000000000
        0.000000000000000
        0.000000000000000
        0.000000000000000
        0.000000000000000
        0.000000000000000
        0.000000000000000
        0.000000000000000
        0.000000000000000
        0.000000000000000
        0.000000000000000
        0.000000000000000
       -0.000000000171460
        0.000000000159877
        0.000000000000000
        0.000000000000000
        0.000000000000000
        0.000000000000000
        0.000000000000000
        0.000000000000000
       -0.000000000453016
        0.000000000062459
       -0.000000000061012
        0.000000000295552
        0.000000000000000
        0.000000000000000
        0.000000000000000
        0.000000000000000
       -0.000000000278643
       -0.000000000894120
       -0.000000002337716
        0.000000001389066
        0.000000001183592
       -0.000000000081769
        0.000000000000000
        0.000000000000000
        0.000000000041353
       -0.000000000438268
       -0.000000004426138
        0.000000000028555
        0.000000004442359
        0.000000000443983
       -0.000000000038528
        0.000000000000000
        0.000000000000000
        0.000000000083528
       -0.000000001181938
       -0.000000001385652
        0.000000002350194
        0.000000000898077
        0.000000000276086
        0.000000000000000
        0.000000000000000
        0.000000000000000
        0.000000000000000
       -0.000000000292983
        0.000000000060886
       -0.000000000057016
        0.000000000450366
        0.000000000000000
        0.000000000000000
        0.000000000000000
        0.000000000000000
        0.000000000000000
        0.000000000000000
       -0.000000000158158
        0.000000000174106
        0.000000000000000
        0.000000000000000
        0.000000000000000
        0.000000000000000
        0.000000000000000
        0.000000000000000
        0.000000000000000
        0.000000000000000
        0.000000000000000
        0.000000000000000
        0.000000000000000
        0.000000000000000
        0.000000000000000
        0.000000000000000
        0.000000000000000
        0.000000000000000
        0.000000000000000
        0.000000000000000
        0.000000000000000
        0.000000000000000
        0.000000000000000
        0.000000000000000
        0.000000000000000
        0.000000000000000
        0.000000000000000
       -0.000000000316024
       -0.000000000195578
        0.000000000155101
        0.000000000176341
        0.000000000000000
        0.000000000000000
        0.000000000000000
        0.000000000000000
       -0.000000000605449
        0.000000000099300
        0.000000001105981
       -0.000000001730077
       -0.000000000397227
        0.000000000086818
        0.000000000000000
        0.000000000000000
        0.000000000057951
       -0.000000001452025
        0.000000020732632
        0.000000037893582
       -0.000000026733535
       -0.000000023017535
        0.000000001452063
        0.000000000000000
        0.000000000000000
       -0.000000000670799
        0.000000009201198
        0.000000089306251
       -0.000000000659500
       -0.000000089566592
       -0.000000009218157
        0.000000000680201
        0.000000000000000
        0.000000000000000
       -0.000000001446360
        0.000000023017564
        0.000000027225760
       -0.000000038020459
       -0.000000020797846
        0.000000001452943
       -0.000000000059908
        0.000000000000000
        0.000000000000000
       -0.000000000085445
        0.000000000390508
        0.000000001796486
       -0.000000001101662
       -0.000000000105301
        0.000000000595767
        0.000000000000000
        0.000000000000000
        0.000000000000000
        0.000000000000000
       -0.000000000175785
       -0.000000000155800
        0.000000000201314
        0.000000000313183
        0.000000000000000
        0.000000000000000
        0.000000000000000
        0.000000000000000
        0.000000000000000
        0.000000000000000
        0.000000000000000
        0.000000000000000
        0.000000000000000
        0.000000000000000
        0.000000000000000
        0.000000000000000
        0.000000000000000
        0.000000000000000
        0.000000000000000
        0.000000000000000
       -0.000000000092188
        0.000000000006081
        0.000000000000000
        0.000000000000000
        0.000000000000000
        0.000000000000000
        0.000000000000000
       -0.000000000200514
       -0.000000000448638
        0.000000000218838
       -0.000000000240625
        0.000000000261740
       -0.000000000000338
        0.000000000000000
        0.000000000000000
       -0.000000000081951
       -0.000000000339728
        0.000000004310918
       -0.000000002605206
       -0.000000007911991
       -0.000000001119662
        0.000000000081684
        0.000000000000000
        0.000000000000000
       -0.000000001416571
        0.000000018553088
        0.000000065416028
       -0.000000106936290
       -0.000000205961558
       -0.000000013902560
        0.000000001007137
        0.000000000006030
        0.000000000005523
       -0.000000004223810
        0.000000075920936
        0.000000337191952
       -0.000000001242402
       -0.000000339535284
       -0.000000076098622
        0.000000004256527
       -0.000000000004772
       -0.000000000005817
       -0.000000000991074
        0.000000013958488
        0.000000204342066
        0.000000105628151
       -0.000000065771118
       -0.000000018596624
        0.000000001422060
        0.000000000000000
        0.000000000000000
       -0.000000000079227
        0.000000001143833
        0.000000007956578
        0.000000002650153
       -0.000000004311719
        0.000000000330280
        0.000000000080781
        0.000000000000000
        0.000000000000000
       -0.000000000000053
       -0.000000000260256
        0.000000000251208
       -0.000000000207078
        0.000000000447499
        0.000000000198609
        0.000000000000000
        0.000000000000000
        0.000000000000000
        0.000000000000000
        0.000000000000000
       -0.000000000005846
        0.000000000092840
        0.000000000000000
        0.000000000000000
        0.000000000000000
        0.000000000000000
        0.000000000000000
        0.000000000000000
        0.000000000000000
        0.000000000005846
       -0.000000000273909
        0.000000000006081
        0.000000000000000
        0.000000000000000
        0.000000000000000
        0.000000000000000
        0.000000000000053
       -0.000000000338236
        0.000000000185759
       -0.000000000170646
        0.000000000196505
       -0.000000000334657
       -0.000000000000338
        0.000000000000000
        0.000000000000000
       -0.000000000177062
        0.000000001204464
       -0.000000002902503
       -0.000000007616748
       -0.000000002944689
        0.000000001231164
       -0.000000000174962
        0.000000000000000
        0.000000000005817
       -0.000000002704994
        0.000000038431194
       -0.000000110170256
       -0.000000264522089
       -0.000000111894719
        0.000000038538208
       -0.000000002701560
        0.000000000006030
       -0.000000000000000
       -0.000000000000000
        0.000000000000000
        0.000000000000000
       -0.000000000000000
       -0.000000000000000
       -0.000000000000000
        0.000000000000000
       -0.000000000000000
       -0.000000000005817
        0.000000002704994
       -0.000000038431194
        0.000000110170256
        0.000000264522089
        0.000000111894719
       -0.000000038538208
        0.000000002701560
       -0.000000000006030
        0.000000000000000
        0.000000000177062
       -0.000000001204464
        0.000000002902503
        0.000000007616748
        0.000000002944689
       -0.000000001231164
        0.000000000174962
        0.000000000000000
        0.000000000000000
       -0.000000000000053
        0.000000000338236
       -0.000000000185759
        0.000000000170646
       -0.000000000196505
        0.000000000334657
        0.000000000000338
        0.000000000000000
        0.000000000000000
        0.000000000000000
        0.000000000000000
       -0.000000000005846
        0.000000000273909
       -0.000000000006081
        0.000000000000000
        0.000000000000000
        0.000000000000000
        0.000000000000000
        0.000000000000000
        0.000000000000000
        0.000000000005846
       -0.000000000092840
        0.000000000000000
        0.000000000000000
        0.000000000000000
        0.000000000000000
        0.000000000000000
        0.000000000000053
        0.000000000260256
       -0.000000000251208
        0.000000000207078
       -0.000000000447499
       -0.000000000198609
        0.000000000000000
        0.000000000000000
        0.000000000000000
        0.000000000079227
       -0.000000001143833
       -0.000000007956578
       -0.000000002650153
        0.000000004311719
       -0.000000000330280
       -0.000000000080781
        0.000000000000000
        0.000000000005817
        0.000000000991074
       -0.000000013958488
       -0.000000204342066
       -0.000000105628151
        0.000000065771118
        0.000000018596624
       -0.000000001422060
        0.000000000000000
       -0.000000000005523
        0.000000004223810
       -0.000000075920936
       -0.000000337191952
        0.000000001242402
        0.000000339535284
        0.000000076098622
       -0.000000004256527
        0.000000000004772
        0.000000000000000
        0.000000001416571
       -0.000000018553088
       -0.000000065416028
        0.000000106936290
        0.000000205961558
        0.000000013902560
       -0.000000001007137
       -0.000000000006030
        0.000000000000000
        0.000000000081951
        0.000000000339728
       -0.000000004310918
        0.000000002605206
        0.000000007911991
        0.000000001119662
       -0.000000000081684
        0.000000000000000
        0.000000000000000
        0.000000000000000
        0.000000000200514
        0.000000000448638
       -0.000000000218838
        0.000000000240625
       -0.000000000261740
        0.000000000000338
        0.000000000000000
        0.000000000000000
        0.000000000000000
        0.000000000000000
        0.000000000000000
        0.000000000092188
       -0.000000000006081
        0.000000000000000
        0.000000000000000
        0.000000000000000
        0.000000000000000
        0.000000000000000
        0.000000000000000
        0.000000000000000
        0.000000000000000
        0.000000000000000
        0.000000000000000
        0.000000000000000
        0.000000000000000
        0.000000000000000
        0.000000000000000
        0.000000000175785
        0.000000000155800
       -0.000000000201314
       -0.000000000313183
        0.000000000000000
        0.000000000000000
        0.000000000000000
        0.000000000000000
        0.000000000085445
       -0.000000000390508
       -0.000000001796486
        0.000000001101662
        0.000000000105301
       -0.000000000595767
        0.000000000000000
        0.000000000000000
        0.000000000000000
        0.000000001446360
       -0.000000023017564
       -0.000000027225760
        0.000000038020459
        0.000000020797846
       -0.000000001452943
        0.000000000059908
        0.000000000000000
        0.000000000000000
        0.000000000670799
       -0.000000009201198
       -0.000000089306251
        0.000000000659500
        0.000000089566592
        0.000000009218157
       -0.000000000680201
        0.000000000000000
        0.000000000000000
       -0.000000000057951
        0.000000001452025
       -0.000000020732632
       -0.000000037893582
        0.000000026733535
        0.000000023017535
       -0.000000001452063
        0.000000000000000
        0.000000000000000
        0.000000000000000
        0.000000000605449
       -0.000000000099300
       -0.000000001105981
        0.000000001730077
        0.000000000397227
       -0.000000000086818
        0.000000000000000
        0.000000000000000
        0.000000000000000
        0.000000000000000
        0.000000000316024
        0.000000000195578
       -0.000000000155101
       -0.000000000176341
        0.000000000000000
        0.000000000000000
        0.000000000000000
        0.000000000000000
        0.000000000000000
        0.000000000000000
        0.000000000000000
        0.000000000000000
        0.000000000000000
        0.000000000000000
        0.000000000000000
        0.000000000000000
        0.000000000000000
        0.000000000000000
        0.000000000000000
        0.000000000000000
        0.000000000000000
        0.000000000000000
        0.000000000000000
        0.000000000000000
        0.000000000000000
        0.000000000000000
        0.000000000000000
        0.000000000158158
       -0.000000000174106
        0.000000000000000
        0.000000000000000
        0.000000000000000
        0.000000000000000
        0.000000000000000
        0.000000000000000
        0.000000000292983
       -0.000000000060886
        0.000000000057016
       -0.000000000450366
        0.000000000000000
        0.000000000000000
        0.000000000000000
        0.000000000000000
       -0.000000000083528
        0.000000001181938
        0.000000001385652
       -0.000000002350194
       -0.000000000898077
       -0.000000000276086
        0.000000000000000
        0.000000000000000
        0.000000000000000
       -0.000000000041353
        0.000000000438268
        0.000000004426138
       -0.000000000028555
       -0.000000004442359
       -0.000000000443983
        0.000000000038528
        0.000000000000000
        0.000000000000000
        0.000000000000000
        0.000000000278643
        0.000000000894120
        0.000000002337716
       -0.000000001389066
       -0.000000001183592
        0.000000000081769
        0.000000000000000
        0.000000000000000
        0.000000000000000
        0.000000000000000
        0.000000000453016
       -0.000000000062459
        0.000000000061012
       -0.000000000295552
        0.000000000000000
        0.000000000000000
        0.000000000000000
        0.000000000000000
        0.000000000000000
        0.000000000000000
        0.000000000171460
       -0.000000000159877
        0.000000000000000
        0.000000000000000
        0.000000000000000
        0.000000000000000
        0.000000000000000
        0.000000000000000
        0.000000000000000
        0.000000000000000
        0.000000000000000
        0.000000000000000
        0.000000000000000
        0.000000000000000
        0.000000000000000
        0.000000000000000
        0.000000000000000
        0.000000000000000
        0.000000000000000
        0.000000000000000
        0.000000000000000
        0.000000000000000
        0.000000000000000
        0.000000000000000
        0.000000000000000
        0.000000000000000
        0.000000000000000
        0.000000000000000
        0.000000000000000
        0.000000000000000
        0.000000000000000
        0.000000000000000
        0.000000000000000
        0.000000000000000
        0.000000000000000
        0.000000000000000
        0.000000000000000
        0.000000000000000
        0.000000000000000
        0.000000000000000
        0.000000000000000
        0.000000000000000
        0.000000000000000
        0.000000000000000
        0.000000000160938
       -0.000000000230793
        0.000000000000000
        0.000000000000000
        0.000000000000000
        0.000000000000000
        0.000000000000000
        0.000000000000000
        0.000000000000000
        0.000000000104591
        0.000000000002498
       -0.000000000102975
        0.000000000000000
        0.000000000000000
        0.000000000000000
        0.000000000000000
        0.000000000000000
        0.000000000000000
        0.000000000000000
        0.000000000232431
       -0.000000000158920
        0.000000000000000
        0.000000000000000
        0.000000000000000
        0.000000000000000
        0.000000000000000
        0.000000000000000
        0.000000000000000
        0.000000000000000
        0.000000000000000
        0.000000000000000
        0.000000000000000
        0.000000000000000
        0.000000000000000
        0.000000000000000
        0.000000000000000
        0.000000000000000
        0.000000000000000
        0.000000000000000
        0.000000000000000
        0.000000000000000
        0.000000000000000
        0.000000000000000
        0.000000000000000
        0.000000000000000
        0.000000000000000
        0.000000000000000
        0.000000000000000
        0.000000000000000
        0.000000000000000
        0.000000000000000
END_DATAGRID_3D
END_BLOCK_DATAGRID_3D
