ATOMS
         C    7.558905    7.558905    7.558905
         H    8.755769    8.755769    8.755769
         H    6.362040    6.362040    8.755769
         H    8.755769    6.362040    6.362040
         H    6.362040    8.755769    6.362040
BEGIN_BLOCK_DATAGRID_3D
units: coords = b, function = sqrt(b^-3)
BEGIN_DATAGRID_3D_function
      9      9      9
0.0 0.0 0.0
   15.117809    0.000000    0.000000
    0.000000   15.117809    0.000000
    0.000000    0.000000   15.117809
        0.000000000000000
        0.000000000000000
        0.000000000000000
        0.000000000000000
        0.000000000000000
        0.000000000000000
        0.000000000000000
        0.000000000000000
        0.000000000000000
        0.000000000000000
        0.000000000000000
        0.000000000000000
        0.000000000000000
        0.000000000000000
        0.000000000000000
        0.000000000000000
        0.000000000000000
        0.000000000000000
        0.000000000000000
        0.000000000000000
        0.000000000000000
        0.000000000000000
        0.000000000000000
        0.000000000000000
        0.000000000000000
        0.000000000000000
        0.000000000000000
        0.000000000000000
        0.000000000000000
        0.000000000000000
        0.000000000000000
        0.000745369204123
        0.000519367909389
        0.000000000000000
        0.000000000000000
        0.000000000000000
        0.000000000000000
        0.000000000000000
        0.000000000000000
        0.001191471746703
        0.001491055703511
        0.000809044202898
        0.000000000000000
        0.000000000000000
        0.000000000000000
        0.000000000000000
        0.000000000000000
        0.000000000000000
        0.001186546752460
        0.001255075211104
        0.000000000000000
        0.000000000000000
        0.000000000000000
        0.000000000000000
        0.000000000000000
        0.000000000000000
        0.000000000000000
        0.000000000000000
        0.000000000000000
        0.000000000000000
        0.000000000000000
        0.000000000000000
        0.000000000000000
        0.000000000000000
        0.000000000000000
        0.000000000000000
        0.000000000000000
        0.000000000000000
        0.000000000000000
        0.000000000000000
        0.000000000000000
        0.000000000000000
        0.000000000000000
        0.000000000000000
        0.000000000000000
        0.000000000000000
        0.000000000000000
        0.000000000000000
        0.000000000000000
        0.000000000000000
        0.000000000000000
        0.000000000000000
        0.000000000000000
        0.000000000000000
        0.000000000000000
        0.000000000000000
        0.000000000000000
        0.000000000000000
        0.000000000000000
        0.000000000000000
        0.000000000000000
        0.000000000000000
        0.000000000000000
        0.000000000000000
        0.000023408313027
       -0.000043229470406
        0.000000000000000
        0.000000000000000
        0.000000000000000
        0.000000000000000
        0.000000000000000
        0.000000000000000
        0.000853803473662
        0.000931567924026
        0.000403150354315
        0.000045294056009
        0.000000000000000
        0.000000000000000
        0.000000000000000
        0.000000000000000
        0.001775303972082
        0.003735021841675
        0.004244949406213
        0.002349093331046
        0.000636294295001
        0.000084599243373
        0.000000000000000
        0.000000000000000
        0.001085988839796
        0.003828373883243
        0.007776197316217
        0.008652474940543
        0.004904062613800
        0.001501507666565
        0.000230150456502
        0.000000000000000
        0.000000000000000
        0.001148637669725
        0.004052866030900
        0.007964900800726
        0.008434190208898
        0.004648176330750
        0.001377067388147
        0.000000000000000
        0.000000000000000
        0.000000000000000
        0.000000000000000
        0.002130378337332
        0.004284884116209
        0.004396525738818
        0.002297809506575
        0.000000000000000
        0.000000000000000
        0.000000000000000
        0.000000000000000
        0.000000000000000
        0.000000000000000
        0.001275657788171
        0.001291880778192
        0.000000000000000
        0.000000000000000
        0.000000000000000
        0.000000000000000
        0.000000000000000
        0.000000000000000
        0.000000000000000
        0.000000000000000
        0.000000000000000
        0.000000000000000
        0.000000000000000
        0.000000000000000
        0.000000000000000
        0.000000000000000
        0.000000000000000
        0.000000000000000
        0.000000000000000
        0.000000000000000
        0.000000000000000
        0.000000000000000
        0.000000000000000
        0.000000000000000
        0.000000000000000
        0.000000000000000
        0.000000000000000
       -0.000263688668945
       -0.000667141649609
       -0.000784094807331
       -0.000454861526337
        0.000000000000000
        0.000000000000000
        0.000000000000000
        0.000000000000000
        0.000868095209885
        0.001392048987491
        0.000514032728021
       -0.000998658528872
       -0.000919502357440
       -0.000338969033276
        0.000000000000000
        0.000000000000000
        0.001427846448069
        0.005412964295360
        0.011612755318276
        0.012558188218447
        0.003917859595897
        0.000064201606388
       -0.000275743890020
        0.000000000000000
        0.000000000000000
        0.003331533444745
        0.013291358324296
        0.033038082291593
        0.039621159802146
        0.016835127241845
        0.003350195816237
        0.000273608890620
        0.000000000000000
        0.000000000000000
        0.003684200494167
        0.014831799597843
        0.035971180859860
        0.037309583984738
        0.016655673626197
        0.004126112044215
        0.000518886465879
        0.000000000000000
        0.000000000000000
        0.001975229745829
        0.007609269827744
        0.015890836993313
        0.016120650501052
        0.008143705807968
        0.002167041776556
        0.000000000000000
        0.000000000000000
        0.000000000000000
        0.000000000000000
        0.002090352750288
        0.004189943328300
        0.004268788682900
        0.002208580839204
        0.000000000000000
        0.000000000000000
        0.000000000000000
        0.000000000000000
        0.000000000000000
        0.000000000000000
        0.000000000000000
        0.000000000000000
        0.000000000000000
        0.000000000000000
        0.000000000000000
        0.000000000000000
        0.000000000000000
        0.000000000000000
        0.000000000000000
        0.000000000000000
       -0.000645370008904
       -0.000575754589613
        0.000000000000000
        0.000000000000000
        0.000000000000000
        0.000000000000000
        0.000000000000000
       -0.000680199878016
       -0.002050252868881
       -0.003505958842286
       -0.003122939724764
       -0.001558603317052
       -0.000467614293965
        0.000000000000000
        0.000000000000000
        0.000089764907126
       -0.000424823975550
       -0.003653003488702
       -0.009504684616762
       -0.009740989122159
       -0.004527257166899
       -0.001283443969924
        0.000000000000000
        0.000000000000000
        0.001935457674196
        0.006862605260277
        0.013245100370355
        0.004774872831452
       -0.012710235789740
       -0.006578317422763
       -0.001855001688778
       -0.000321880374936
        0.000759234737263
        0.005366672290530
        0.026174240303461
        0.084807829036350
        0.105109502502037
        0.024889181811526
       -0.000117041193262
       -0.001049961553204
       -0.000259245553160
        0.000846402775484
        0.006265263283124
        0.031722484283621
        0.105107314662757
        0.104903888377368
        0.033092756825528
        0.004928450934009
        0.000205009197801
        0.000000000000000
        0.000000000000000
        0.003603484578288
        0.014464367706433
        0.034879053477156
        0.035546778761356
        0.015436860670021
        0.003660417409489
        0.000412233824724
        0.000000000000000
        0.000000000000000
        0.001104405627287
        0.003877205009370
        0.007527332482344
        0.007814892157673
        0.004186312382328
        0.001181179341256
        0.000000000000000
        0.000000000000000
        0.000000000000000
        0.000000000000000
        0.000000000000000
        0.001098989283956
        0.001143925255062
        0.000000000000000
        0.000000000000000
        0.000000000000000
        0.000000000000000
        0.000000000000000
        0.000000000000000
        0.000000000000000
       -0.000847171244584
       -0.001270356893356
       -0.000857146631536
        0.000000000000000
        0.000000000000000
        0.000000000000000
        0.000000000000000
       -0.000456889927468
       -0.001976854841534
       -0.005102930176361
       -0.007371691161962
       -0.005699015847429
       -0.002561911838528
       -0.000663300214025
        0.000000000000000
        0.000000000000000
       -0.000875319953749
       -0.005261459190737
       -0.018763844843589
       -0.033755363430045
       -0.023718090728653
       -0.008906998770346
       -0.002191324576427
        0.000000000000000
        0.000111229637417
        0.000237283786117
       -0.003565420812302
       -0.031399621412726
       -0.089544075705317
       -0.062018892525474
       -0.018607914349890
       -0.003902543995152
       -0.000534679367564
        0.000632406084280
        0.003668415691821
        0.016786853702062
        0.044526800481775
        0.000009383872457
       -0.044478807392001
       -0.016764476596194
       -0.003658552298638
       -0.000630212714548
        0.000737173098066
        0.005138158915605
        0.024694786793012
        0.077860526109046
        0.089557266157483
        0.015609994416062
       -0.002490053093270
       -0.001458731067053
       -0.000310863474057
        0.000000000000000
        0.003134097017823
        0.012310510354849
        0.029795769878618
        0.033758584323436
        0.012699238495276
        0.001870122942221
       -0.000061685386631
        0.000000000000000
        0.000000000000000
        0.001014429744262
        0.003503180485848
        0.006928347661460
        0.007372183171890
        0.003875889977834
        0.001038444568031
        0.000107178431870
        0.000000000000000
        0.000000000000000
        0.000000000000000
        0.000000000000000
        0.001058260656790
        0.001270427133325
        0.000646265385582
        0.000000000000000
        0.000000000000000
        0.000000000000000
        0.000000000000000
        0.000000000000000
        0.000000000000000
       -0.000877584482380
       -0.001059007204833
        0.000000000000000
        0.000000000000000
        0.000000000000000
        0.000000000000000
        0.000000000000000
       -0.000582112767028
       -0.002434725201329
       -0.005663342329473
       -0.007296333101138
       -0.005091046401783
       -0.002004267079789
        0.000000000000000
        0.000000000000000
        0.000000000000000
       -0.001616720177359
       -0.008156614329993
       -0.024237222975773
       -0.032980166010190
       -0.020425262601265
       -0.007695231361811
       -0.001745164056622
        0.000000000000000
       -0.000122985393233
       -0.001893476425936
       -0.014826442605896
       -0.065984249373792
       -0.098209525753739
       -0.052700864402176
       -0.016887905263428
       -0.003750094463831
        0.000000000000000
        0.000089167998220
        0.000008770411192
       -0.005044874322750
       -0.038346924340029
       -0.105096312049870
       -0.071298079920938
       -0.020980926249897
       -0.004311313509001
       -0.000586297288460
        0.000000000000000
        0.001618673841821
        0.005116820154034
        0.006386737958215
       -0.011451855035712
       -0.026369853551066
       -0.010292851408498
       -0.002505152452235
       -0.000399098605777
        0.000000000000000
        0.001246519376620
        0.004466955269050
        0.008648040274487
        0.006942558761370
       -0.000888799314189
       -0.001769748386367
       -0.000698232358855
        0.000000000000000
        0.000000000000000
        0.000000000000000
        0.001504728836781
        0.002956270793379
        0.002988155140058
        0.001261149144058
        0.000118811186940
       -0.000053348978840
        0.000000000000000
        0.000000000000000
        0.000000000000000
        0.000000000000000
        0.000000000000000
        0.000560527018579
        0.000354556963479
        0.000000000000000
        0.000000000000000
        0.000000000000000
        0.000000000000000
        0.000000000000000
        0.000000000000000
        0.000000000000000
        0.000000000000000
        0.000000000000000
        0.000000000000000
        0.000000000000000
        0.000000000000000
        0.000000000000000
        0.000000000000000
       -0.001398119213673
       -0.003209598460209
       -0.003872243288999
       -0.002421129027473
        0.000000000000000
        0.000000000000000
        0.000000000000000
        0.000000000000000
       -0.001053555926153
       -0.004777145677575
       -0.011687175421321
       -0.014685917284067
       -0.009513892520938
       -0.003451426514031
        0.000000000000000
        0.000000000000000
        0.000000000000000
       -0.001697436093238
       -0.008524046221403
       -0.025329350358477
       -0.034742971233572
       -0.021644075557441
       -0.008160925996537
       -0.001851816697777
        0.000000000000000
        0.000000000000000
       -0.001072756380671
       -0.006242307160184
       -0.022006157256564
       -0.039617938908754
       -0.027853979475221
       -0.010387071644363
       -0.002526618853678
        0.000000000000000
        0.000000000000000
       -0.000091562164323
       -0.001370833001861
       -0.006617718532491
       -0.015120314073839
       -0.014547648032244
       -0.006361207159654
       -0.001705932438759
        0.000000000000000
        0.000000000000000
        0.000000000000000
        0.000418518300544
       -0.000019795569065
       -0.001947206119160
       -0.003200217836150
       -0.001907554634584
       -0.000580381833854
        0.000000000000000
        0.000000000000000
        0.000000000000000
        0.000000000000000
        0.000476530329953
        0.000270941339866
       -0.000195122831473
       -0.000236185037742
        0.000000000000000
        0.000000000000000
        0.000000000000000
        0.000000000000000
        0.000000000000000
        0.000000000000000
        0.000000000000000
        0.000000000000000
        0.000000000000000
        0.000000000000000
        0.000000000000000
        0.000000000000000
        0.000000000000000
        0.000000000000000
        0.000000000000000
        0.000000000000000
        0.000000000000000
        0.000000000000000
        0.000000000000000
        0.000000000000000
        0.000000000000000
        0.000000000000000
        0.000000000000000
       -0.001006726082863
       -0.001144035203703
        0.000000000000000
        0.000000000000000
        0.000000000000000
        0.000000000000000
        0.000000000000000
        0.000000000000000
       -0.001438144800717
       -0.003304539248119
       -0.003999980344917
       -0.002510357694844
        0.000000000000000
        0.000000000000000
        0.000000000000000
        0.000000000000000
       -0.000626344809466
       -0.002610386222859
       -0.006100910647855
       -0.007915631152362
       -0.005552910350204
       -0.002200155126680
        0.000000000000000
        0.000000000000000
        0.000000000000000
       -0.000528449023002
       -0.002302048238929
       -0.005950779831118
       -0.008651982930615
       -0.006727188483395
       -0.003024974937062
       -0.000786272238657
        0.000000000000000
        0.000000000000000
        0.000000000000000
       -0.000950775013317
       -0.002829003917177
       -0.004762753108441
       -0.004210883911751
       -0.002076086425113
       -0.000605562516178
        0.000000000000000
        0.000000000000000
        0.000000000000000
        0.000000000000000
       -0.000640961812655
       -0.001327768233769
       -0.001382367993119
       -0.000736340620087
        0.000000000000000
        0.000000000000000
        0.000000000000000
        0.000000000000000
        0.000000000000000
        0.000000000000000
       -0.000171163430757
       -0.000225462425618
        0.000000000000000
        0.000000000000000
        0.000000000000000
        0.000000000000000
        0.000000000000000
        0.000000000000000
        0.000000000000000
        0.000000000000000
        0.000000000000000
        0.000000000000000
        0.000000000000000
        0.000000000000000
        0.000000000000000
        0.000000000000000
        0.000000000000000
        0.000000000000000
        0.000000000000000
        0.000000000000000
        0.000000000000000
        0.000000000000000
        0.000000000000000
        0.000000000000000
        0.000000000000000
        0.000000000000000
        0.000000000000000
        0.000000000000000
        0.000000000000000
        0.000000000000000
        0.000000000000000
        0.000000000000000
        0.000000000000000
        0.000000000000000
        0.000000000000000
        0.000000000000000
        0.000000000000000
        0.000000000000000
        0.000000000000000
        0.000000000000000
        0.000000000000000
        0.000000000000000
        0.000000000000000
        0.000000000000000
       -0.000965141950884
       -0.001170157160875
        0.000000000000000
        0.000000000000000
        0.000000000000000
        0.000000000000000
        0.000000000000000
        0.000000000000000
        0.000000000000000
       -0.000980382334497
       -0.001490985463542
       -0.001019925448853
        0.000000000000000
        0.000000000000000
        0.000000000000000
        0.000000000000000
        0.000000000000000
        0.000000000000000
        0.000000000000000
       -0.000830212194449
       -0.000740565535523
        0.000000000000000
        0.000000000000000
        0.000000000000000
        0.000000000000000
        0.000000000000000
        0.000000000000000
        0.000000000000000
        0.000000000000000
        0.000000000000000
        0.000000000000000
        0.000000000000000
        0.000000000000000
        0.000000000000000
        0.000000000000000
        0.000000000000000
        0.000000000000000
        0.000000000000000
        0.000000000000000
        0.000000000000000
        0.000000000000000
        0.000000000000000
        0.000000000000000
        0.000000000000000
        0.000000000000000
        0.000000000000000
        0.000000000000000
        0.000000000000000
        0.000000000000000
        0.000000000000000
        0.000000000000000
END_DATAGRID_3D
END_BLOCK_DATAGRID_3D
