ATOMS
         C    7.558905    7.558905    7.558905
         H    8.755769    8.755769    8.755769
         H    6.362040    6.362040    8.755769
         H    8.755769    6.362040    6.362040
         H    6.362040    8.755769    6.362040
BEGIN_BLOCK_DATAGRID_3D
units: coords = b, function = sqrt(b^-3)
BEGIN_DATAGRID_3D_function
      9      9      9
0.0 0.0 0.0
   15.117809    0.000000    0.000000
    0.000000   15.117809    0.000000
    0.000000    0.000000   15.117809
        0.000000000000000
        0.000000000000000
        0.000000000000000
        0.000000000000000
        0.000000000000000
        0.000000000000000
        0.000000000000000
        0.000000000000000
        0.000000000000000
        0.000000000000000
        0.000000000000000
        0.000000000000000
        0.000000000000000
        0.000000000000000
        0.000000000000000
        0.000000000000000
        0.000000000000000
        0.000000000000000
        0.000000000000000
        0.000000000000000
        0.000000000000000
        0.000000000000000
        0.000000000000000
        0.000000000000000
        0.000000000000000
        0.000000000000000
        0.000000000000000
        0.000000000000000
        0.000000000000000
        0.000000000000000
        0.000000000000000
        0.000193883712411
        0.000136182883156
        0.000000000000000
        0.000000000000000
        0.000000000000000
        0.000000000000000
        0.000000000000000
        0.000000000000000
        0.000307278605149
        0.000387747686604
        0.000212141259011
        0.000000000000000
        0.000000000000000
        0.000000000000000
        0.000000000000000
        0.000000000000000
        0.000000000000000
        0.000306013963713
        0.000326318302965
        0.000000000000000
        0.000000000000000
        0.000000000000000
        0.000000000000000
        0.000000000000000
        0.000000000000000
        0.000000000000000
        0.000000000000000
        0.000000000000000
        0.000000000000000
        0.000000000000000
        0.000000000000000
        0.000000000000000
        0.000000000000000
        0.000000000000000
        0.000000000000000
        0.000000000000000
        0.000000000000000
        0.000000000000000
        0.000000000000000
        0.000000000000000
        0.000000000000000
        0.000000000000000
        0.000000000000000
        0.000000000000000
        0.000000000000000
        0.000000000000000
        0.000000000000000
        0.000000000000000
        0.000000000000000
        0.000000000000000
        0.000000000000000
        0.000000000000000
        0.000000000000000
        0.000000000000000
        0.000000000000000
        0.000000000000000
        0.000000000000000
        0.000000000000000
        0.000000000000000
        0.000000000000000
        0.000000000000000
        0.000000000000000
        0.000000000000000
        0.000006091417976
       -0.000011333982090
        0.000000000000000
        0.000000000000000
        0.000000000000000
        0.000000000000000
        0.000000000000000
        0.000000000000000
        0.000220195646993
        0.000242249795321
        0.000105727531069
        0.000011980006803
        0.000000000000000
        0.000000000000000
        0.000000000000000
        0.000000000000000
        0.000453930889082
        0.000963102777161
        0.001103913159454
        0.000616047259024
        0.000168263913516
        0.000022560417642
        0.000000000000000
        0.000000000000000
        0.000275283016730
        0.000978784386074
        0.002005153103859
        0.002250098266700
        0.001286086318212
        0.000397068903408
        0.000061364750023
        0.000000000000000
        0.000000000000000
        0.000291166575638
        0.001036171244505
        0.002053810176736
        0.002193330598590
        0.001218973782323
        0.000364132382011
        0.000000000000000
        0.000000000000000
        0.000000000000000
        0.000000000000000
        0.000544720672034
        0.001104873172586
        0.001143336861541
        0.000602529317867
        0.000000000000000
        0.000000000000000
        0.000000000000000
        0.000000000000000
        0.000000000000000
        0.000000000000000
        0.000329000189843
        0.000335887987955
        0.000000000000000
        0.000000000000000
        0.000000000000000
        0.000000000000000
        0.000000000000000
        0.000000000000000
        0.000000000000000
        0.000000000000000
        0.000000000000000
        0.000000000000000
        0.000000000000000
        0.000000000000000
        0.000000000000000
        0.000000000000000
        0.000000000000000
        0.000000000000000
        0.000000000000000
        0.000000000000000
        0.000000000000000
        0.000000000000000
        0.000000000000000
        0.000000000000000
        0.000000000000000
        0.000000000000000
        0.000000000000000
       -0.000067998038997
       -0.000173490632807
       -0.000205632198854
       -0.000120274983602
        0.000000000000000
        0.000000000000000
        0.000000000000000
        0.000000000000000
        0.000221972089478
        0.000358949236330
        0.000133676900431
       -0.000261896208811
       -0.000243161632489
       -0.000090380359560
        0.000000000000000
        0.000000000000000
        0.000361950583252
        0.001383926937578
        0.002994534412009
        0.003265818488650
        0.001027424263997
        0.000016979641698
       -0.000073521687506
        0.000000000000000
        0.000000000000000
        0.000844485885887
        0.003398248527608
        0.008519528590782
        0.010303604652883
        0.004414744416661
        0.000885941993086
        0.000072962691670
        0.000000000000000
        0.000000000000000
        0.000933863077430
        0.003792119996200
        0.009275689952995
        0.009702367398421
        0.004367764935864
        0.001091144204191
        0.000138343262397
        0.000000000000000
        0.000000000000000
        0.000500706561150
        0.001945428893305
        0.004097599168467
        0.004192201905053
        0.002135659939835
        0.000573015347627
        0.000000000000000
        0.000000000000000
        0.000000000000000
        0.000000000000000
        0.000534486705799
        0.001080392359981
        0.001110117877497
        0.000579132250717
        0.000000000000000
        0.000000000000000
        0.000000000000000
        0.000000000000000
        0.000000000000000
        0.000000000000000
        0.000000000000000
        0.000000000000000
        0.000000000000000
        0.000000000000000
        0.000000000000000
        0.000000000000000
        0.000000000000000
        0.000000000000000
        0.000000000000000
        0.000000000000000
       -0.000167866109376
       -0.000150966626873
        0.000000000000000
        0.000000000000000
        0.000000000000000
        0.000000000000000
        0.000000000000000
       -0.000173914789557
       -0.000528676988856
       -0.000911735369927
       -0.000818988560895
       -0.000412170289891
       -0.000124686355656
        0.000000000000000
        0.000000000000000
        0.000022757581602
       -0.000108613184411
       -0.000941993105814
       -0.002471728911705
       -0.002554497093801
       -0.001197192398408
       -0.000342221004453
        0.000000000000000
        0.000000000000000
        0.000490612617816
        0.001754636242267
        0.003415698888530
        0.001241792173965
       -0.003332956019666
       -0.001739264463764
       -0.000494692177509
       -0.000086524875201
        0.000190851688454
        0.001360147325120
        0.006692960845452
        0.021871998301985
        0.027334516357941
        0.006525193949529
       -0.000030636574013
       -0.000279999960691
       -0.000069711370682
        0.000212791571161
        0.001587690599900
        0.008112425005596
        0.027104823067526
        0.027279295180812
        0.008676967297099
        0.001303498438330
        0.000054631157670
        0.000000000000000
        0.000000000000000
        0.000913403255783
        0.003698177751479
        0.008994068452767
        0.009243949389110
        0.004048143038075
        0.000967993580124
        0.000109906120969
        0.000000000000000
        0.000000000000000
        0.000279954791769
        0.000991260513789
        0.001940979773600
        0.002032281229359
        0.001097850519482
        0.000312334684956
        0.000000000000000
        0.000000000000000
        0.000000000000000
        0.000000000000000
        0.000000000000000
        0.000283432947848
        0.000297420252199
        0.000000000000000
        0.000000000000000
        0.000000000000000
        0.000000000000000
        0.000000000000000
        0.000000000000000
        0.000000000000000
       -0.000218479882369
       -0.000330360041809
       -0.000224749532168
        0.000000000000000
        0.000000000000000
        0.000000000000000
        0.000000000000000
       -0.000115812742691
       -0.000505416408741
       -0.001315830626496
       -0.001917023196229
       -0.001494562488907
       -0.000677493094003
       -0.000176857014410
        0.000000000000000
        0.000000000000000
       -0.000221872917645
       -0.001345209208286
       -0.004838658586637
       -0.008778164400202
       -0.006219747192485
       -0.002355376438494
       -0.000584302060367
        0.000000000000000
        0.000027939507096
        0.000060167176660
       -0.000911532530512
       -0.008098582730140
       -0.023285887619072
       -0.016261568304409
       -0.004920129302197
       -0.001040718221612
       -0.000143696100214
        0.000158953746136
        0.000929627512622
        0.004293324807055
        0.011483370179394
        0.000009757556317
       -0.011662735781671
       -0.004431827971166
       -0.000975782672146
       -0.000169397807179
        0.000185302592722
        0.001302230787040
        0.006314684155952
        0.020080199388056
        0.023290146532944
        0.004092182831443
       -0.000658088737213
       -0.000389014136148
       -0.000083582917326
        0.000000000000000
        0.000794439731558
        0.003147473129692
        0.007683428654035
        0.008779030604810
        0.003330163640172
        0.000494550399026
       -0.000016441575359
        0.000000000000000
        0.000000000000000
        0.000257143251393
        0.000895643342624
        0.001786528457979
        0.001917155240537
        0.001016448940004
        0.000274612963602
        0.000028575467461
        0.000000000000000
        0.000000000000000
        0.000000000000000
        0.000000000000000
        0.000272923770733
        0.000330372283412
        0.000169458885987
        0.000000000000000
        0.000000000000000
        0.000000000000000
        0.000000000000000
        0.000000000000000
        0.000000000000000
       -0.000226330974837
       -0.000275334881412
        0.000000000000000
        0.000000000000000
        0.000000000000000
        0.000000000000000
        0.000000000000000
       -0.000147559703840
       -0.000622472516606
       -0.001460336696244
       -0.001897427414442
       -0.001335122065551
       -0.000529970120384
        0.000000000000000
        0.000000000000000
        0.000000000000000
       -0.000409791903998
       -0.002085450231618
       -0.006249918435675
       -0.008576490387680
       -0.005356319873249
       -0.002034976999238
       -0.000465306628145
        0.000000000000000
       -0.000030964624655
       -0.000479711240349
       -0.003791716657044
       -0.017015779579689
       -0.025538452219604
       -0.013818769535858
       -0.004465936631488
       -0.000999894712832
        0.000000000000000
        0.000022390411363
        0.000002250638580
       -0.001289809220012
       -0.009890381644070
       -0.027330257444068
       -0.018694579422495
       -0.005547581465397
       -0.001149732397069
       -0.000157567646859
        0.000000000000000
        0.000410307352018
        0.001308309234304
        0.001646932427356
       -0.002978194612233
       -0.006914916235739
       -0.002721311673681
       -0.000668106284133
       -0.000107272378012
        0.000000000000000
        0.000315983822496
        0.001142063652621
        0.002230030785437
        0.001805448487810
       -0.000233085944598
       -0.000467987216551
       -0.000186178151590
        0.000000000000000
        0.000000000000000
        0.000000000000000
        0.000384747160908
        0.000762295171156
        0.000777080819868
        0.000330734948261
        0.000031415638024
       -0.000014221528572
        0.000000000000000
        0.000000000000000
        0.000000000000000
        0.000000000000000
        0.000000000000000
        0.000145804701002
        0.000092968747893
        0.000000000000000
        0.000000000000000
        0.000000000000000
        0.000000000000000
        0.000000000000000
        0.000000000000000
        0.000000000000000
        0.000000000000000
        0.000000000000000
        0.000000000000000
        0.000000000000000
        0.000000000000000
        0.000000000000000
        0.000000000000000
       -0.000357484862007
       -0.000827607685419
       -0.001006999227550
       -0.000634853595614
        0.000000000000000
        0.000000000000000
        0.000000000000000
        0.000000000000000
       -0.000267069287401
       -0.001221353696933
       -0.003013647002819
       -0.003819095624299
       -0.002494996619324
       -0.000912622341998
        0.000000000000000
        0.000000000000000
        0.000000000000000
       -0.000430251725646
       -0.002179392476338
       -0.006531539935903
       -0.009034908396990
       -0.005675941771039
       -0.002158127623304
       -0.000493743769573
        0.000000000000000
        0.000000000000000
       -0.000271919071974
       -0.001595984606202
       -0.005674758523383
       -0.010302738448274
       -0.007304327968974
       -0.002746768032553
       -0.000673706327396
        0.000000000000000
        0.000000000000000
       -0.000023209179153
       -0.000350476469368
       -0.001706496732386
       -0.003932098912544
       -0.003815007302397
       -0.001682159256656
       -0.000454877468537
        0.000000000000000
        0.000000000000000
        0.000000000000000
        0.000107017911057
       -0.000005108603267
       -0.000506375800207
       -0.000839249809664
       -0.000504450162302
       -0.000154748840327
        0.000000000000000
        0.000000000000000
        0.000000000000000
        0.000000000000000
        0.000122900399582
        0.000070454281315
       -0.000051171367555
       -0.000062449372669
        0.000000000000000
        0.000000000000000
        0.000000000000000
        0.000000000000000
        0.000000000000000
        0.000000000000000
        0.000000000000000
        0.000000000000000
        0.000000000000000
        0.000000000000000
        0.000000000000000
        0.000000000000000
        0.000000000000000
        0.000000000000000
        0.000000000000000
        0.000000000000000
        0.000000000000000
        0.000000000000000
        0.000000000000000
        0.000000000000000
        0.000000000000000
        0.000000000000000
        0.000000000000000
       -0.000259639503006
       -0.000297443077757
        0.000000000000000
        0.000000000000000
        0.000000000000000
        0.000000000000000
        0.000000000000000
        0.000000000000000
       -0.000367718828243
       -0.000852088498024
       -0.001040218211594
       -0.000658250662764
        0.000000000000000
        0.000000000000000
        0.000000000000000
        0.000000000000000
       -0.000158771487709
       -0.000667383247321
       -0.001573167099380
       -0.002058476783674
       -0.001456245328392
       -0.000581767817439
        0.000000000000000
        0.000000000000000
        0.000000000000000
       -0.000133952508027
       -0.000588557452192
       -0.001534455272376
       -0.002249966222391
       -0.001764199867115
       -0.000799949033809
       -0.000209646296972
        0.000000000000000
        0.000000000000000
        0.000000000000000
       -0.000243098517731
       -0.000729484594862
       -0.001238567709513
       -0.001104300871658
       -0.000549018565383
       -0.000161468301871
        0.000000000000000
        0.000000000000000
        0.000000000000000
        0.000000000000000
       -0.000165293286408
       -0.000345286146813
       -0.000362531097478
       -0.000194704363074
        0.000000000000000
        0.000000000000000
        0.000000000000000
        0.000000000000000
        0.000000000000000
        0.000000000000000
       -0.000044517955174
       -0.000059115538666
        0.000000000000000
        0.000000000000000
        0.000000000000000
        0.000000000000000
        0.000000000000000
        0.000000000000000
        0.000000000000000
        0.000000000000000
        0.000000000000000
        0.000000000000000
        0.000000000000000
        0.000000000000000
        0.000000000000000
        0.000000000000000
        0.000000000000000
        0.000000000000000
        0.000000000000000
        0.000000000000000
        0.000000000000000
        0.000000000000000
        0.000000000000000
        0.000000000000000
        0.000000000000000
        0.000000000000000
        0.000000000000000
        0.000000000000000
        0.000000000000000
        0.000000000000000
        0.000000000000000
        0.000000000000000
        0.000000000000000
        0.000000000000000
        0.000000000000000
        0.000000000000000
        0.000000000000000
        0.000000000000000
        0.000000000000000
        0.000000000000000
        0.000000000000000
        0.000000000000000
        0.000000000000000
        0.000000000000000
       -0.000248911990703
       -0.000304232932177
        0.000000000000000
        0.000000000000000
        0.000000000000000
        0.000000000000000
        0.000000000000000
        0.000000000000000
        0.000000000000000
       -0.000252834716785
       -0.000387735445001
       -0.000267431905193
        0.000000000000000
        0.000000000000000
        0.000000000000000
        0.000000000000000
        0.000000000000000
        0.000000000000000
        0.000000000000000
       -0.000215945120785
       -0.000194180762136
        0.000000000000000
        0.000000000000000
        0.000000000000000
        0.000000000000000
        0.000000000000000
        0.000000000000000
        0.000000000000000
        0.000000000000000
        0.000000000000000
        0.000000000000000
        0.000000000000000
        0.000000000000000
        0.000000000000000
        0.000000000000000
        0.000000000000000
        0.000000000000000
        0.000000000000000
        0.000000000000000
        0.000000000000000
        0.000000000000000
        0.000000000000000
        0.000000000000000
        0.000000000000000
        0.000000000000000
        0.000000000000000
        0.000000000000000
        0.000000000000000
        0.000000000000000
        0.000000000000000
        0.000000000000000
END_DATAGRID_3D
END_BLOCK_DATAGRID_3D
