ATOMS
         C    7.558905    7.558905    7.558905
         H    8.755769    8.755769    8.755769
         H    6.362040    6.362040    8.755769
         H    8.755769    6.362040    6.362040
         H    6.362040    8.755769    6.362040
BEGIN_BLOCK_DATAGRID_3D
units: coords = b, function = 1/hbar/H*b^-2
BEGIN_DATAGRID_3D_function
      9      9      9
0.0 0.0 0.0
   15.117809    0.000000    0.000000
    0.000000   15.117809    0.000000
    0.000000    0.000000   15.117809
        0.000000000000000
        0.000000000000000
        0.000000000000000
        0.000000000000000
        0.000000000000000
        0.000000000000000
        0.000000000000000
        0.000000000000000
        0.000000000000000
        0.000000000000000
        0.000000000000000
        0.000000000000000
        0.000000000000000
        0.000000000000000
        0.000000000000000
        0.000000000000000
        0.000000000000000
        0.000000000000000
        0.000000000000000
        0.000000000000000
        0.000000000000000
        0.000000000000000
        0.000000000000000
        0.000000000000000
        0.000000000000000
        0.000000000000000
        0.000000000000000
        0.000000000000000
        0.000000000000000
        0.000000000000000
        0.000000000000000
       -0.000000001583607
        0.000000001036811
        0.000000000000000
        0.000000000000000
        0.000000000000000
        0.000000000000000
        0.000000000000000
        0.000000000000000
       -0.000000001005515
       -0.000000000000502
        0.000000001001603
        0.000000000000000
        0.000000000000000
        0.000000000000000
        0.000000000000000
        0.000000000000000
        0.000000000000000
       -0.000000001039084
        0.000000001578029
        0.000000000000000
        0.000000000000000
        0.000000000000000
        0.000000000000000
        0.000000000000000
        0.000000000000000
        0.000000000000000
        0.000000000000000
        0.000000000000000
        0.000000000000000
        0.000000000000000
        0.000000000000000
        0.000000000000000
        0.000000000000000
        0.000000000000000
        0.000000000000000
        0.000000000000000
        0.000000000000000
        0.000000000000000
        0.000000000000000
        0.000000000000000
        0.000000000000000
        0.000000000000000
        0.000000000000000
        0.000000000000000
        0.000000000000000
        0.000000000000000
        0.000000000000000
        0.000000000000000
        0.000000000000000
        0.000000000000000
        0.000000000000000
        0.000000000000000
        0.000000000000000
        0.000000000000000
        0.000000000000000
        0.000000000000000
        0.000000000000000
        0.000000000000000
        0.000000000000000
        0.000000000000000
        0.000000000000000
        0.000000000000000
        0.000000000000000
       -0.000000001013186
        0.000000000934067
        0.000000000000000
        0.000000000000000
        0.000000000000000
        0.000000000000000
        0.000000000000000
        0.000000000000000
       -0.000000002869690
       -0.000000000415177
        0.000000000048016
        0.000000002041595
        0.000000000000000
        0.000000000000000
        0.000000000000000
        0.000000000000000
       -0.000000002083891
       -0.000000006227234
       -0.000000014642511
        0.000000010567054
        0.000000006446125
       -0.000000000253399
        0.000000000000000
        0.000000000000000
        0.000000000210942
       -0.000000003841793
       -0.000000026433754
       -0.000000000025535
        0.000000026493844
        0.000000003862528
       -0.000000000208076
        0.000000000000000
        0.000000000000000
        0.000000000254222
       -0.000000006412109
       -0.000000010574732
        0.000000014653216
        0.000000006241672
        0.000000002090285
        0.000000000000000
        0.000000000000000
        0.000000000000000
        0.000000000000000
       -0.000000002041032
       -0.000000000039238
        0.000000000415721
        0.000000002873460
        0.000000000000000
        0.000000000000000
        0.000000000000000
        0.000000000000000
        0.000000000000000
        0.000000000000000
       -0.000000000934660
        0.000000001014630
        0.000000000000000
        0.000000000000000
        0.000000000000000
        0.000000000000000
        0.000000000000000
        0.000000000000000
        0.000000000000000
        0.000000000000000
        0.000000000000000
        0.000000000000000
        0.000000000000000
        0.000000000000000
        0.000000000000000
        0.000000000000000
        0.000000000000000
        0.000000000000000
        0.000000000000000
        0.000000000000000
        0.000000000000000
        0.000000000000000
        0.000000000000000
        0.000000000000000
        0.000000000000000
        0.000000000000000
        0.000000000000000
       -0.000000001996643
       -0.000000001566676
        0.000000001094595
        0.000000001208052
        0.000000000000000
        0.000000000000000
        0.000000000000000
        0.000000000000000
       -0.000000004026552
        0.000000001161683
        0.000000011689914
       -0.000000012402772
       -0.000000005657426
        0.000000000800600
        0.000000000000000
        0.000000000000000
       -0.000000000120515
       -0.000000006780368
        0.000000155222985
        0.000000263546110
       -0.000000220534130
       -0.000000153983753
        0.000000008029830
        0.000000000000000
        0.000000000000000
       -0.000000005415450
        0.000000081455357
        0.000000622125354
        0.000000000241228
       -0.000000623935891
       -0.000000082010715
        0.000000005463430
        0.000000000000000
        0.000000000000000
       -0.000000007978491
        0.000000153191892
        0.000000221615591
       -0.000000263503904
       -0.000000155985468
        0.000000006753160
        0.000000000128815
        0.000000000000000
        0.000000000000000
       -0.000000000796820
        0.000000005610319
        0.000000012570454
       -0.000000011630001
       -0.000000001227073
        0.000000004034658
        0.000000000000000
        0.000000000000000
        0.000000000000000
        0.000000000000000
       -0.000000001210219
       -0.000000001089772
        0.000000001569096
        0.000000001996091
        0.000000000000000
        0.000000000000000
        0.000000000000000
        0.000000000000000
        0.000000000000000
        0.000000000000000
        0.000000000000000
        0.000000000000000
        0.000000000000000
        0.000000000000000
        0.000000000000000
        0.000000000000000
        0.000000000000000
        0.000000000000000
        0.000000000000000
        0.000000000000000
       -0.000000000605783
        0.000000000003922
        0.000000000000000
        0.000000000000000
        0.000000000000000
        0.000000000000000
        0.000000000000000
       -0.000000001323599
       -0.000000003303558
        0.000000000954516
       -0.000000000830193
        0.000000001671977
        0.000000000000304
        0.000000000000000
        0.000000000000000
       -0.000000000708561
       -0.000000001501867
        0.000000037159862
       -0.000000021400360
       -0.000000073577094
       -0.000000007140267
        0.000000000646743
        0.000000000000000
        0.000000000000000
       -0.000000009661888
        0.000000142865568
        0.000000449297966
       -0.000000764697722
       -0.000001426711883
       -0.000000120306214
        0.000000007072541
       -0.000000000040586
       -0.000000000243273
       -0.000000022434767
        0.000000518100049
        0.000001710046782
        0.000000011932310
       -0.000001721110960
       -0.000000520897500
        0.000000022564940
        0.000000000248098
        0.000000000040770
       -0.000000006999041
        0.000000119611934
        0.000001419489049
        0.000000769137548
       -0.000000450742177
       -0.000000143762122
        0.000000009715650
        0.000000000000000
        0.000000000000000
       -0.000000000634992
        0.000000007138733
        0.000000073260717
        0.000000021762280
       -0.000000037303777
        0.000000001447803
        0.000000000715205
        0.000000000000000
        0.000000000000000
       -0.000000000000598
       -0.000000001667768
        0.000000000847828
       -0.000000000928967
        0.000000003301987
        0.000000001324772
        0.000000000000000
        0.000000000000000
        0.000000000000000
        0.000000000000000
        0.000000000000000
       -0.000000000003243
        0.000000000604668
        0.000000000000000
        0.000000000000000
        0.000000000000000
        0.000000000000000
        0.000000000000000
        0.000000000000000
        0.000000000000000
        0.000000000003243
       -0.000000001794048
        0.000000000003922
        0.000000000000000
        0.000000000000000
        0.000000000000000
        0.000000000000000
        0.000000000000598
       -0.000000002368509
        0.000000001053443
       -0.000000000662232
        0.000000001062304
       -0.000000002362258
        0.000000000000304
        0.000000000000000
        0.000000000000000
       -0.000000001684027
        0.000000013207939
       -0.000000026985221
       -0.000000073372936
       -0.000000027432998
        0.000000013345909
       -0.000000001688220
        0.000000000000000
       -0.000000000040770
       -0.000000014337748
        0.000000243920559
       -0.000000740771327
       -0.000001863627070
       -0.000000748056846
        0.000000245197009
       -0.000000014368899
       -0.000000000040586
       -0.000000000000000
       -0.000000000000000
        0.000000000000000
       -0.000000000000000
       -0.000000000000000
       -0.000000000000000
       -0.000000000000000
        0.000000000000000
        0.000000000000000
        0.000000000040770
        0.000000014337748
       -0.000000243920559
        0.000000740771327
        0.000001863627070
        0.000000748056846
       -0.000000245197009
        0.000000014368899
        0.000000000040586
        0.000000000000000
        0.000000001684027
       -0.000000013207939
        0.000000026985221
        0.000000073372936
        0.000000027432998
       -0.000000013345909
        0.000000001688220
        0.000000000000000
        0.000000000000000
       -0.000000000000598
        0.000000002368509
       -0.000000001053443
        0.000000000662232
       -0.000000001062304
        0.000000002362258
       -0.000000000000304
        0.000000000000000
        0.000000000000000
        0.000000000000000
        0.000000000000000
       -0.000000000003243
        0.000000001794048
       -0.000000000003922
        0.000000000000000
        0.000000000000000
        0.000000000000000
        0.000000000000000
        0.000000000000000
        0.000000000000000
        0.000000000003243
       -0.000000000604668
        0.000000000000000
        0.000000000000000
        0.000000000000000
        0.000000000000000
        0.000000000000000
        0.000000000000598
        0.000000001667768
       -0.000000000847828
        0.000000000928967
       -0.000000003301987
       -0.000000001324772
        0.000000000000000
        0.000000000000000
        0.000000000000000
        0.000000000634992
       -0.000000007138733
       -0.000000073260717
       -0.000000021762280
        0.000000037303777
       -0.000000001447803
       -0.000000000715205
        0.000000000000000
       -0.000000000040770
        0.000000006999041
       -0.000000119611934
       -0.000001419489049
       -0.000000769137548
        0.000000450742177
        0.000000143762122
       -0.000000009715650
        0.000000000000000
        0.000000000243273
        0.000000022434767
       -0.000000518100049
       -0.000001710046782
       -0.000000011932310
        0.000001721110960
        0.000000520897500
       -0.000000022564940
       -0.000000000248098
        0.000000000000000
        0.000000009661888
       -0.000000142865568
       -0.000000449297966
        0.000000764697722
        0.000001426711883
        0.000000120306214
       -0.000000007072541
        0.000000000040586
        0.000000000000000
        0.000000000708561
        0.000000001501867
       -0.000000037159862
        0.000000021400360
        0.000000073577094
        0.000000007140267
       -0.000000000646743
        0.000000000000000
        0.000000000000000
        0.000000000000000
        0.000000001323599
        0.000000003303558
       -0.000000000954516
        0.000000000830193
       -0.000000001671977
       -0.000000000000304
        0.000000000000000
        0.000000000000000
        0.000000000000000
        0.000000000000000
        0.000000000000000
        0.000000000605783
       -0.000000000003922
        0.000000000000000
        0.000000000000000
        0.000000000000000
        0.000000000000000
        0.000000000000000
        0.000000000000000
        0.000000000000000
        0.000000000000000
        0.000000000000000
        0.000000000000000
        0.000000000000000
        0.000000000000000
        0.000000000000000
        0.000000000000000
        0.000000001210219
        0.000000001089772
       -0.000000001569096
       -0.000000001996091
        0.000000000000000
        0.000000000000000
        0.000000000000000
        0.000000000000000
        0.000000000796820
       -0.000000005610319
       -0.000000012570454
        0.000000011630001
        0.000000001227073
       -0.000000004034658
        0.000000000000000
        0.000000000000000
        0.000000000000000
        0.000000007978491
       -0.000000153191892
       -0.000000221615591
        0.000000263503904
        0.000000155985468
       -0.000000006753160
       -0.000000000128815
        0.000000000000000
        0.000000000000000
        0.000000005415450
       -0.000000081455357
       -0.000000622125354
       -0.000000000241228
        0.000000623935891
        0.000000082010715
       -0.000000005463430
        0.000000000000000
        0.000000000000000
        0.000000000120515
        0.000000006780368
       -0.000000155222985
       -0.000000263546110
        0.000000220534130
        0.000000153983753
       -0.000000008029830
        0.000000000000000
        0.000000000000000
        0.000000000000000
        0.000000004026552
       -0.000000001161683
       -0.000000011689914
        0.000000012402772
        0.000000005657426
       -0.000000000800600
        0.000000000000000
        0.000000000000000
        0.000000000000000
        0.000000000000000
        0.000000001996643
        0.000000001566676
       -0.000000001094595
       -0.000000001208052
        0.000000000000000
        0.000000000000000
        0.000000000000000
        0.000000000000000
        0.000000000000000
        0.000000000000000
        0.000000000000000
        0.000000000000000
        0.000000000000000
        0.000000000000000
        0.000000000000000
        0.000000000000000
        0.000000000000000
        0.000000000000000
        0.000000000000000
        0.000000000000000
        0.000000000000000
        0.000000000000000
        0.000000000000000
        0.000000000000000
        0.000000000000000
        0.000000000000000
        0.000000000000000
        0.000000000934660
       -0.000000001014630
        0.000000000000000
        0.000000000000000
        0.000000000000000
        0.000000000000000
        0.000000000000000
        0.000000000000000
        0.000000002041032
        0.000000000039238
       -0.000000000415721
       -0.000000002873460
        0.000000000000000
        0.000000000000000
        0.000000000000000
        0.000000000000000
       -0.000000000254222
        0.000000006412109
        0.000000010574732
       -0.000000014653216
       -0.000000006241672
       -0.000000002090285
        0.000000000000000
        0.000000000000000
        0.000000000000000
       -0.000000000210942
        0.000000003841793
        0.000000026433754
        0.000000000025535
       -0.000000026493844
       -0.000000003862528
        0.000000000208076
        0.000000000000000
        0.000000000000000
        0.000000000000000
        0.000000002083891
        0.000000006227234
        0.000000014642511
       -0.000000010567054
       -0.000000006446125
        0.000000000253399
        0.000000000000000
        0.000000000000000
        0.000000000000000
        0.000000000000000
        0.000000002869690
        0.000000000415177
       -0.000000000048016
       -0.000000002041595
        0.000000000000000
        0.000000000000000
        0.000000000000000
        0.000000000000000
        0.000000000000000
        0.000000000000000
        0.000000001013186
       -0.000000000934067
        0.000000000000000
        0.000000000000000
        0.000000000000000
        0.000000000000000
        0.000000000000000
        0.000000000000000
        0.000000000000000
        0.000000000000000
        0.000000000000000
        0.000000000000000
        0.000000000000000
        0.000000000000000
        0.000000000000000
        0.000000000000000
        0.000000000000000
        0.000000000000000
        0.000000000000000
        0.000000000000000
        0.000000000000000
        0.000000000000000
        0.000000000000000
        0.000000000000000
        0.000000000000000
        0.000000000000000
        0.000000000000000
        0.000000000000000
        0.000000000000000
        0.000000000000000
        0.000000000000000
        0.000000000000000
        0.000000000000000
        0.000000000000000
        0.000000000000000
        0.000000000000000
        0.000000000000000
        0.000000000000000
        0.000000000000000
        0.000000000000000
        0.000000000000000
        0.000000000000000
        0.000000000000000
        0.000000000000000
        0.000000001039084
       -0.000000001578029
        0.000000000000000
        0.000000000000000
        0.000000000000000
        0.000000000000000
        0.000000000000000
        0.000000000000000
        0.000000000000000
        0.000000001005515
        0.000000000000502
       -0.000000001001603
        0.000000000000000
        0.000000000000000
        0.000000000000000
        0.000000000000000
        0.000000000000000
        0.000000000000000
        0.000000000000000
        0.000000001583607
       -0.000000001036811
        0.000000000000000
        0.000000000000000
        0.000000000000000
        0.000000000000000
        0.000000000000000
        0.000000000000000
        0.000000000000000
        0.000000000000000
        0.000000000000000
        0.000000000000000
        0.000000000000000
        0.000000000000000
        0.000000000000000
        0.000000000000000
        0.000000000000000
        0.000000000000000
        0.000000000000000
        0.000000000000000
        0.000000000000000
        0.000000000000000
        0.000000000000000
        0.000000000000000
        0.000000000000000
        0.000000000000000
        0.000000000000000
        0.000000000000000
        0.000000000000000
        0.000000000000000
        0.000000000000000
        0.000000000000000
END_DATAGRID_3D
END_BLOCK_DATAGRID_3D
