ATOMS
         C    7.558905    7.558905    7.558905
         H    8.755769    8.755769    8.755769
         H    6.362040    6.362040    8.755769
         H    8.755769    6.362040    6.362040
         H    6.362040    8.755769    6.362040
BEGIN_BLOCK_DATAGRID_3D
units: coords = b, function = sqrt(b^-3)
BEGIN_DATAGRID_3D_function
      9      9      9
0.0 0.0 0.0
   15.117809    0.000000    0.000000
    0.000000   15.117809    0.000000
    0.000000    0.000000   15.117809
        0.000000000000000
        0.000000000000000
        0.000000000000000
        0.000000000000000
        0.000000000000000
        0.000000000000000
        0.000000000000000
        0.000000000000000
        0.000000000000000
        0.000000000000000
        0.000000000000000
        0.000000000000000
        0.000000000000000
        0.000000000000000
        0.000000000000000
        0.000000000000000
        0.000000000000000
        0.000000000000000
        0.000000000000000
        0.000000000000000
        0.000000000000000
        0.000000000000000
        0.000000000000000
        0.000000000000000
        0.000000000000000
        0.000000000000000
        0.000000000000000
        0.000000000000000
        0.000000000000000
        0.000000000000000
        0.000000000000000
        0.000697826511516
        0.000485994973115
        0.000000000000000
        0.000000000000000
        0.000000000000000
        0.000000000000000
        0.000000000000000
        0.000000000000000
        0.001116947859394
        0.001396624304295
        0.000757109100951
        0.000000000000000
        0.000000000000000
        0.000000000000000
        0.000000000000000
        0.000000000000000
        0.000000000000000
        0.001112384013597
        0.001175990286151
        0.000000000000000
        0.000000000000000
        0.000000000000000
        0.000000000000000
        0.000000000000000
        0.000000000000000
        0.000000000000000
        0.000000000000000
        0.000000000000000
        0.000000000000000
        0.000000000000000
        0.000000000000000
        0.000000000000000
        0.000000000000000
        0.000000000000000
        0.000000000000000
        0.000000000000000
        0.000000000000000
        0.000000000000000
        0.000000000000000
        0.000000000000000
        0.000000000000000
        0.000000000000000
        0.000000000000000
        0.000000000000000
        0.000000000000000
        0.000000000000000
        0.000000000000000
        0.000000000000000
        0.000000000000000
        0.000000000000000
        0.000000000000000
        0.000000000000000
        0.000000000000000
        0.000000000000000
        0.000000000000000
        0.000000000000000
        0.000000000000000
        0.000000000000000
        0.000000000000000
        0.000000000000000
        0.000000000000000
        0.000000000000000
        0.000000000000000
        0.000021948826215
       -0.000040408036908
        0.000000000000000
        0.000000000000000
        0.000000000000000
        0.000000000000000
        0.000000000000000
        0.000000000000000
        0.000800469110616
        0.000872661137590
        0.000377319129667
        0.000042397653749
        0.000000000000000
        0.000000000000000
        0.000000000000000
        0.000000000000000
        0.001666432902287
        0.003502459698488
        0.003976087739166
        0.002197962318560
        0.000594723248050
        0.000078968007737
        0.000000000000000
        0.000000000000000
        0.001020622754572
        0.003594193077345
        0.007292122937234
        0.008104531436122
        0.004588335028364
        0.001403212194693
        0.000214833555471
        0.000000000000000
        0.000000000000000
        0.001079493237314
        0.003805021811446
        0.007469329515752
        0.007900324118302
        0.004349005340336
        0.001287031007590
        0.000000000000000
        0.000000000000000
        0.000000000000000
        0.000000000000000
        0.001999782776898
        0.004018338031460
        0.004118348686618
        0.002150295532961
        0.000000000000000
        0.000000000000000
        0.000000000000000
        0.000000000000000
        0.000000000000000
        0.000000000000000
        0.001195997051120
        0.001210486796008
        0.000000000000000
        0.000000000000000
        0.000000000000000
        0.000000000000000
        0.000000000000000
        0.000000000000000
        0.000000000000000
        0.000000000000000
        0.000000000000000
        0.000000000000000
        0.000000000000000
        0.000000000000000
        0.000000000000000
        0.000000000000000
        0.000000000000000
        0.000000000000000
        0.000000000000000
        0.000000000000000
        0.000000000000000
        0.000000000000000
        0.000000000000000
        0.000000000000000
        0.000000000000000
        0.000000000000000
        0.000000000000000
       -0.000247082872281
       -0.000624579408250
       -0.000733240708719
       -0.000424940394138
        0.000000000000000
        0.000000000000000
        0.000000000000000
        0.000000000000000
        0.000814934500768
        0.001305793393477
        0.000482439961295
       -0.000933243293374
       -0.000858776038503
       -0.000316254506963
        0.000000000000000
        0.000000000000000
        0.001341876658475
        0.005081403533667
        0.010889027973562
        0.011764497850642
        0.003668609617768
        0.000060641863537
       -0.000257168526278
        0.000000000000000
        0.000000000000000
        0.003131208130795
        0.012475367193698
        0.030976135054289
        0.037114038980440
        0.015757788343173
        0.003131806627008
        0.000255457926239
        0.000000000000000
        0.000000000000000
        0.003462705545700
        0.013920583771663
        0.033730257827370
        0.034951242332566
        0.015587708190649
        0.003856298998139
        0.000484407950761
        0.000000000000000
        0.000000000000000
        0.001856289890572
        0.007143143009643
        0.014902019448071
        0.015101052093592
        0.007620318123929
        0.002025483058595
        0.000000000000000
        0.000000000000000
        0.000000000000000
        0.000000000000000
        0.001962214266198
        0.003929317539191
        0.003998717985667
        0.002066809605965
        0.000000000000000
        0.000000000000000
        0.000000000000000
        0.000000000000000
        0.000000000000000
        0.000000000000000
        0.000000000000000
        0.000000000000000
        0.000000000000000
        0.000000000000000
        0.000000000000000
        0.000000000000000
        0.000000000000000
        0.000000000000000
        0.000000000000000
        0.000000000000000
       -0.000604136113116
       -0.000538674438118
        0.000000000000000
        0.000000000000000
        0.000000000000000
        0.000000000000000
        0.000000000000000
       -0.000638348630261
       -0.001922039189496
       -0.003282966698673
       -0.002920889549737
       -0.001455959985874
       -0.000436307959936
        0.000000000000000
        0.000000000000000
        0.000084404843998
       -0.000398140547001
       -0.003422794813852
       -0.008898748676734
       -0.009110896854966
       -0.004229778426740
       -0.001197454844918
        0.000000000000000
        0.000000000000000
        0.001819153429069
        0.006441560441185
        0.012422583893610
        0.004483204247747
       -0.011881215379579
       -0.006147661493935
       -0.001730478761318
       -0.000299885222426
        0.000714346053290
        0.005044677688291
        0.024557893114037
        0.079506040571598
        0.098462904582560
        0.023318655224669
       -0.000107306738475
       -0.000979464382397
       -0.000241337311990
        0.000796430007352
        0.005889214600611
        0.029761597540494
        0.098550994916202
        0.098281231648429
        0.030985420276276
        0.004607344850308
        0.000191522285181
        0.000000000000000
        0.000000000000000
        0.003386848395138
        0.013575726318418
        0.032706464818514
        0.033300362350568
        0.014447459959387
        0.003421171177117
        0.000384885022058
        0.000000000000000
        0.000000000000000
        0.001037924182089
        0.003640128654265
        0.007059068124168
        0.007320334874037
        0.003916972203232
        0.001103997063808
        0.000000000000000
        0.000000000000000
        0.000000000000000
        0.000000000000000
        0.000000000000000
        0.001030308878175
        0.001071853514557
        0.000000000000000
        0.000000000000000
        0.000000000000000
        0.000000000000000
        0.000000000000000
        0.000000000000000
        0.000000000000000
       -0.000794103857073
       -0.001189745846536
       -0.000802010889426
        0.000000000000000
        0.000000000000000
        0.000000000000000
        0.000000000000000
       -0.000429354121310
       -0.001855608762690
       -0.004784411210941
       -0.006903634457202
       -0.005330771412848
       -0.002393403790647
       -0.000618957682824
        0.000000000000000
        0.000000000000000
       -0.000822566889531
       -0.004937224936841
       -0.017587328709830
       -0.031610606075344
       -0.022189762759836
       -0.008322603980668
       -0.002044614611073
        0.000000000000000
        0.000104811160730
        0.000223034709895
       -0.003342420678252
       -0.029414209631454
       -0.083851334313486
       -0.058028711765826
       -0.017392801449460
       -0.003640746727499
       -0.000498334749394
        0.000595300545645
        0.003448274863975
        0.015748924904397
        0.041762265908208
        0.000008480263623
       -0.041593942274168
       -0.015672001298030
       -0.003413102729875
       -0.000587016535745
        0.000693613626900
        0.004829883882146
        0.023169889270358
        0.072996162516780
        0.083898853175883
        0.014635548594849
       -0.002325712844474
       -0.001360803943232
       -0.000289453655271
        0.000000000000000
        0.002945659812184
        0.011554849679943
        0.027937101316020
        0.031623933102873
        0.011888383470990
        0.001748744774392
       -0.000057393311147
        0.000000000000000
        0.000000000000000
        0.000953380046392
        0.003288948305897
        0.006497214941556
        0.006905571938512
        0.003626614694749
        0.000970608478301
        0.000100085932559
        0.000000000000000
        0.000000000000000
        0.000000000000000
        0.000000000000000
        0.000992087268095
        0.001190014951570
        0.000604806793924
        0.000000000000000
        0.000000000000000
        0.000000000000000
        0.000000000000000
        0.000000000000000
        0.000000000000000
       -0.000822673334505
       -0.000992208749782
        0.000000000000000
        0.000000000000000
        0.000000000000000
        0.000000000000000
        0.000000000000000
       -0.000547022049338
       -0.002285544409873
       -0.005310278665977
       -0.006833522094678
       -0.004762455854448
       -0.001872843099646
        0.000000000000000
        0.000000000000000
        0.000000000000000
       -0.001519395442312
       -0.007654296651763
       -0.022723513584009
       -0.030889635009823
       -0.019109892784221
       -0.007189872182074
       -0.001628592628903
        0.000000000000000
       -0.000115628779953
       -0.001779644215048
       -0.013906534801647
       -0.061852878221272
       -0.091985470410674
       -0.049316271249743
       -0.015781322987425
       -0.003499046258226
        0.000000000000000
        0.000084078734340
        0.000008240903750
       -0.004730424521931
       -0.035924087686270
       -0.098415385720162
       -0.066711818395645
       -0.019611207555458
       -0.004022086288333
       -0.000546451092675
        0.000000000000000
        0.001521442905857
        0.004803250433830
        0.005995846702401
       -0.010710173724733
       -0.024660056669937
       -0.009620338488265
       -0.002337031041400
       -0.000371847735392
        0.000000000000000
        0.001171497269070
        0.004193507835024
        0.008110126236393
        0.006506232521569
       -0.000827596657875
       -0.001653158639631
       -0.000651371131582
        0.000000000000000
        0.000000000000000
        0.000000000000000
        0.001412499908438
        0.002772374470591
        0.002799189425306
        0.001180384686817
        0.000111293645188
       -0.000049756033422
        0.000000000000000
        0.000000000000000
        0.000000000000000
        0.000000000000000
        0.000000000000000
        0.000524793709923
        0.000331800343755
        0.000000000000000
        0.000000000000000
        0.000000000000000
        0.000000000000000
        0.000000000000000
        0.000000000000000
        0.000000000000000
        0.000000000000000
        0.000000000000000
        0.000000000000000
        0.000000000000000
        0.000000000000000
        0.000000000000000
        0.000000000000000
       -0.001312306447792
       -0.003009621217635
       -0.003626808388315
       -0.002265434070858
        0.000000000000000
        0.000000000000000
        0.000000000000000
        0.000000000000000
       -0.000990030135980
       -0.004484000046210
       -0.010958486383302
       -0.013754946770199
       -0.008900599677158
       -0.003225265171972
        0.000000000000000
        0.000000000000000
        0.000000000000000
       -0.001595252592874
       -0.007999154105008
       -0.023747306592865
       -0.032540514991822
       -0.020250141015483
       -0.007625000003096
       -0.001728115557606
        0.000000000000000
        0.000000000000000
       -0.001008115208142
       -0.005857742450595
       -0.020626362448098
       -0.037100711952911
       -0.026059167632018
       -0.009705665833284
       -0.002357465848459
        0.000000000000000
        0.000000000000000
       -0.000085974545408
       -0.001286036245644
       -0.006201696551020
       -0.014157014005807
       -0.013607103130609
       -0.005943578929907
       -0.001591657450222
        0.000000000000000
        0.000000000000000
        0.000000000000000
        0.000393030333907
       -0.000017703934663
       -0.001822229686048
       -0.002992426452742
       -0.001781908490564
       -0.000541529291112
        0.000000000000000
        0.000000000000000
        0.000000000000000
        0.000000000000000
        0.000446848716277
        0.000254054777858
       -0.000182245857169
       -0.000220596882558
        0.000000000000000
        0.000000000000000
        0.000000000000000
        0.000000000000000
        0.000000000000000
        0.000000000000000
        0.000000000000000
        0.000000000000000
        0.000000000000000
        0.000000000000000
        0.000000000000000
        0.000000000000000
        0.000000000000000
        0.000000000000000
        0.000000000000000
        0.000000000000000
        0.000000000000000
        0.000000000000000
        0.000000000000000
        0.000000000000000
        0.000000000000000
        0.000000000000000
        0.000000000000000
       -0.000943797420986
       -0.001071887663019
        0.000000000000000
        0.000000000000000
        0.000000000000000
        0.000000000000000
        0.000000000000000
        0.000000000000000
       -0.001349874958492
       -0.003098641709905
       -0.003746439089265
       -0.002348919997854
        0.000000000000000
        0.000000000000000
        0.000000000000000
        0.000000000000000
       -0.000588591104563
       -0.002450437567055
       -0.005720540057561
       -0.007413511338942
       -0.005194488991551
       -0.002055877043427
        0.000000000000000
        0.000000000000000
        0.000000000000000
       -0.000496596829490
       -0.002160853534138
       -0.005579319206619
       -0.008102593954811
       -0.006292491746463
       -0.002826007507039
       -0.000733705305737
        0.000000000000000
        0.000000000000000
        0.000000000000000
       -0.000892281624110
       -0.002652124417393
       -0.004459865012533
       -0.003938467181480
       -0.001939389588736
       -0.000565032001095
        0.000000000000000
        0.000000000000000
        0.000000000000000
        0.000000000000000
       -0.000600703266620
       -0.001243185767982
       -0.001292805695555
       -0.000687934930445
        0.000000000000000
        0.000000000000000
        0.000000000000000
        0.000000000000000
        0.000000000000000
        0.000000000000000
       -0.000160189970105
       -0.000210891873341
        0.000000000000000
        0.000000000000000
        0.000000000000000
        0.000000000000000
        0.000000000000000
        0.000000000000000
        0.000000000000000
        0.000000000000000
        0.000000000000000
        0.000000000000000
        0.000000000000000
        0.000000000000000
        0.000000000000000
        0.000000000000000
        0.000000000000000
        0.000000000000000
        0.000000000000000
        0.000000000000000
        0.000000000000000
        0.000000000000000
        0.000000000000000
        0.000000000000000
        0.000000000000000
        0.000000000000000
        0.000000000000000
        0.000000000000000
        0.000000000000000
        0.000000000000000
        0.000000000000000
        0.000000000000000
        0.000000000000000
        0.000000000000000
        0.000000000000000
        0.000000000000000
        0.000000000000000
        0.000000000000000
        0.000000000000000
        0.000000000000000
        0.000000000000000
        0.000000000000000
        0.000000000000000
        0.000000000000000
       -0.000904748469928
       -0.001096345521376
        0.000000000000000
        0.000000000000000
        0.000000000000000
        0.000000000000000
        0.000000000000000
        0.000000000000000
        0.000000000000000
       -0.000918964448372
       -0.001396355199261
       -0.000954313196453
        0.000000000000000
        0.000000000000000
        0.000000000000000
        0.000000000000000
        0.000000000000000
        0.000000000000000
        0.000000000000000
       -0.000777168914709
       -0.000692869067477
        0.000000000000000
        0.000000000000000
        0.000000000000000
        0.000000000000000
        0.000000000000000
        0.000000000000000
        0.000000000000000
        0.000000000000000
        0.000000000000000
        0.000000000000000
        0.000000000000000
        0.000000000000000
        0.000000000000000
        0.000000000000000
        0.000000000000000
        0.000000000000000
        0.000000000000000
        0.000000000000000
        0.000000000000000
        0.000000000000000
        0.000000000000000
        0.000000000000000
        0.000000000000000
        0.000000000000000
        0.000000000000000
        0.000000000000000
        0.000000000000000
        0.000000000000000
        0.000000000000000
        0.000000000000000
END_DATAGRID_3D
END_BLOCK_DATAGRID_3D
