ATOMS
         C    7.558905    7.558905    7.558905
         H    8.755769    8.755769    8.755769
         H    6.362040    6.362040    8.755769
         H    8.755769    6.362040    6.362040
         H    6.362040    8.755769    6.362040
BEGIN_BLOCK_DATAGRID_3D
units: coords = b, function = 1/hbar/H*b^-2
BEGIN_DATAGRID_3D_function
      9      9      9
0.0 0.0 0.0
   15.117809    0.000000    0.000000
    0.000000   15.117809    0.000000
    0.000000    0.000000   15.117809
        0.000000000000000
        0.000000000000000
        0.000000000000000
        0.000000000000000
        0.000000000000000
        0.000000000000000
        0.000000000000000
        0.000000000000000
        0.000000000000000
        0.000000000000000
        0.000000000000000
        0.000000000000000
        0.000000000000000
        0.000000000000000
        0.000000000000000
        0.000000000000000
        0.000000000000000
        0.000000000000000
        0.000000000000000
        0.000000000000000
        0.000000000000000
        0.000000000000000
        0.000000000000000
        0.000000000000000
        0.000000000000000
        0.000000000000000
        0.000000000000000
        0.000000000000000
        0.000000000000000
        0.000000000000000
        0.000000000000000
       -0.000000000001655
        0.000000000000620
        0.000000000000000
        0.000000000000000
        0.000000000000000
        0.000000000000000
        0.000000000000000
        0.000000000000000
       -0.000000000000552
       -0.000000000001638
        0.000000000000623
        0.000000000000000
        0.000000000000000
        0.000000000000000
        0.000000000000000
        0.000000000000000
        0.000000000000000
       -0.000000000001790
        0.000000000001725
        0.000000000000000
        0.000000000000000
        0.000000000000000
        0.000000000000000
        0.000000000000000
        0.000000000000000
        0.000000000000000
        0.000000000000000
        0.000000000000000
        0.000000000000000
        0.000000000000000
        0.000000000000000
        0.000000000000000
        0.000000000000000
        0.000000000000000
        0.000000000000000
        0.000000000000000
        0.000000000000000
        0.000000000000000
        0.000000000000000
        0.000000000000000
        0.000000000000000
        0.000000000000000
        0.000000000000000
        0.000000000000000
        0.000000000000000
        0.000000000000000
        0.000000000000000
        0.000000000000000
        0.000000000000000
        0.000000000000000
        0.000000000000000
        0.000000000000000
        0.000000000000000
        0.000000000000000
        0.000000000000000
        0.000000000000000
        0.000000000000000
        0.000000000000000
        0.000000000000000
        0.000000000000000
        0.000000000000000
        0.000000000000000
        0.000000000000000
       -0.000000000000985
        0.000000000001828
        0.000000000000000
        0.000000000000000
        0.000000000000000
        0.000000000000000
        0.000000000000000
        0.000000000000000
       -0.000000000004477
        0.000000000002843
       -0.000000000002127
        0.000000000003320
        0.000000000000000
        0.000000000000000
        0.000000000000000
        0.000000000000000
       -0.000000000002986
       -0.000000000004741
       -0.000000000017398
        0.000000000011180
        0.000000000008135
       -0.000000000000210
        0.000000000000000
        0.000000000000000
        0.000000000000672
       -0.000000000000719
       -0.000000000034308
        0.000000000016431
        0.000000000035134
        0.000000000004587
        0.000000000000081
        0.000000000000000
        0.000000000000000
        0.000000000001375
       -0.000000000011066
       -0.000000000008069
        0.000000000018217
        0.000000000008055
        0.000000000000909
        0.000000000000000
        0.000000000000000
        0.000000000000000
        0.000000000000000
       -0.000000000000871
       -0.000000000000806
        0.000000000001026
        0.000000000002399
        0.000000000000000
        0.000000000000000
        0.000000000000000
        0.000000000000000
        0.000000000000000
        0.000000000000000
       -0.000000000000662
        0.000000000001737
        0.000000000000000
        0.000000000000000
        0.000000000000000
        0.000000000000000
        0.000000000000000
        0.000000000000000
        0.000000000000000
        0.000000000000000
        0.000000000000000
        0.000000000000000
        0.000000000000000
        0.000000000000000
        0.000000000000000
        0.000000000000000
        0.000000000000000
        0.000000000000000
        0.000000000000000
        0.000000000000000
        0.000000000000000
        0.000000000000000
        0.000000000000000
        0.000000000000000
        0.000000000000000
        0.000000000000000
        0.000000000000000
       -0.000000000003250
        0.000000000000304
        0.000000000000164
        0.000000000001907
        0.000000000000000
        0.000000000000000
        0.000000000000000
        0.000000000000000
       -0.000000000007263
        0.000000000002191
        0.000000000002269
       -0.000000000002880
       -0.000000000003962
        0.000000000001117
        0.000000000000000
        0.000000000000000
       -0.000000000000166
       -0.000000000010300
        0.000000000140852
        0.000000000261745
       -0.000000000110792
       -0.000000000161203
        0.000000000010675
        0.000000000000000
        0.000000000000000
       -0.000000000002700
        0.000000000054863
        0.000000000643963
       -0.000000000296142
       -0.000000000672647
       -0.000000000062598
        0.000000000005963
        0.000000000000000
        0.000000000000000
       -0.000000000012618
        0.000000000181980
        0.000000000256583
       -0.000000000290185
       -0.000000000151877
        0.000000000013179
       -0.000000000001537
        0.000000000000000
        0.000000000000000
        0.000000000000181
       -0.000000000001369
        0.000000000023775
       -0.000000000009995
        0.000000000000671
        0.000000000001593
        0.000000000000000
        0.000000000000000
        0.000000000000000
        0.000000000000000
       -0.000000000000611
       -0.000000000002122
        0.000000000002953
        0.000000000001545
        0.000000000000000
        0.000000000000000
        0.000000000000000
        0.000000000000000
        0.000000000000000
        0.000000000000000
        0.000000000000000
        0.000000000000000
        0.000000000000000
        0.000000000000000
        0.000000000000000
        0.000000000000000
        0.000000000000000
        0.000000000000000
        0.000000000000000
        0.000000000000000
       -0.000000000000400
        0.000000000000003
        0.000000000000000
        0.000000000000000
        0.000000000000000
        0.000000000000000
        0.000000000000000
       -0.000000000002170
       -0.000000000002856
        0.000000000002552
       -0.000000000000725
        0.000000000002126
       -0.000000000000026
        0.000000000000000
        0.000000000000000
       -0.000000000001208
       -0.000000000002347
        0.000000000029114
       -0.000000000008434
       -0.000000000034992
       -0.000000000005271
        0.000000000000706
        0.000000000000000
        0.000000000000000
       -0.000000000009894
        0.000000000129493
        0.000000000434117
       -0.000000001034815
       -0.000000001687234
       -0.000000000077125
        0.000000000008578
        0.000000000000044
        0.000000000000497
       -0.000000000033489
        0.000000000568826
        0.000000002672160
       -0.000000001441708
       -0.000000003221637
       -0.000000000549956
        0.000000000034961
        0.000000000000081
       -0.000000000000172
       -0.000000000005369
        0.000000000105684
        0.000000001313489
        0.000000000486747
       -0.000000000522597
       -0.000000000127312
        0.000000000010400
        0.000000000000000
        0.000000000000000
       -0.000000000000431
        0.000000000012725
        0.000000000063477
        0.000000000027701
       -0.000000000026869
        0.000000000002709
       -0.000000000000139
        0.000000000000000
        0.000000000000000
       -0.000000000000006
       -0.000000000001854
        0.000000000003922
       -0.000000000001136
        0.000000000003346
        0.000000000000821
        0.000000000000000
        0.000000000000000
        0.000000000000000
        0.000000000000000
        0.000000000000000
       -0.000000000000131
        0.000000000000978
        0.000000000000000
        0.000000000000000
        0.000000000000000
        0.000000000000000
        0.000000000000000
        0.000000000000000
        0.000000000000000
        0.000000000000131
       -0.000000000002039
        0.000000000000003
        0.000000000000000
        0.000000000000000
        0.000000000000000
        0.000000000000000
        0.000000000000006
       -0.000000000002527
       -0.000000000000805
       -0.000000000001572
        0.000000000003818
       -0.000000000002250
       -0.000000000000026
        0.000000000000000
        0.000000000000000
       -0.000000000001099
        0.000000000002488
       -0.000000000017550
       -0.000000000046142
       -0.000000000018139
        0.000000000009863
       -0.000000000000826
        0.000000000000000
        0.000000000000172
       -0.000000000024252
        0.000000000291004
       -0.000000000620145
       -0.000000001914043
       -0.000000001028539
        0.000000000290724
       -0.000000000019649
        0.000000000000044
       -0.000000000000000
       -0.000000000000000
       -0.000000000000000
        0.000000000000000
       -0.000000000000000
       -0.000000000000000
        0.000000000000000
        0.000000000000000
       -0.000000000000000
       -0.000000000000172
        0.000000000024252
       -0.000000000291004
        0.000000000620145
        0.000000001914043
        0.000000001028539
       -0.000000000290724
        0.000000000019649
       -0.000000000000044
        0.000000000000000
        0.000000000001099
       -0.000000000002488
        0.000000000017550
        0.000000000046142
        0.000000000018139
       -0.000000000009863
        0.000000000000826
        0.000000000000000
        0.000000000000000
       -0.000000000000006
        0.000000000002527
        0.000000000000805
        0.000000000001572
       -0.000000000003818
        0.000000000002250
        0.000000000000026
        0.000000000000000
        0.000000000000000
        0.000000000000000
        0.000000000000000
       -0.000000000000131
        0.000000000002039
       -0.000000000000003
        0.000000000000000
        0.000000000000000
        0.000000000000000
        0.000000000000000
        0.000000000000000
        0.000000000000000
        0.000000000000131
       -0.000000000000978
        0.000000000000000
        0.000000000000000
        0.000000000000000
        0.000000000000000
        0.000000000000000
        0.000000000000006
        0.000000000001854
       -0.000000000003922
        0.000000000001136
       -0.000000000003346
       -0.000000000000821
        0.000000000000000
        0.000000000000000
        0.000000000000000
        0.000000000000431
       -0.000000000012725
       -0.000000000063477
       -0.000000000027701
        0.000000000026869
       -0.000000000002709
        0.000000000000139
        0.000000000000000
        0.000000000000172
        0.000000000005369
       -0.000000000105684
       -0.000000001313489
       -0.000000000486747
        0.000000000522597
        0.000000000127312
       -0.000000000010400
        0.000000000000000
       -0.000000000000497
        0.000000000033489
       -0.000000000568826
       -0.000000002672160
        0.000000001441708
        0.000000003221637
        0.000000000549956
       -0.000000000034961
       -0.000000000000081
        0.000000000000000
        0.000000000009894
       -0.000000000129493
       -0.000000000434117
        0.000000001034815
        0.000000001687234
        0.000000000077125
       -0.000000000008578
       -0.000000000000044
        0.000000000000000
        0.000000000001208
        0.000000000002347
       -0.000000000029114
        0.000000000008434
        0.000000000034992
        0.000000000005271
       -0.000000000000706
        0.000000000000000
        0.000000000000000
        0.000000000000000
        0.000000000002170
        0.000000000002856
       -0.000000000002552
        0.000000000000725
       -0.000000000002126
        0.000000000000026
        0.000000000000000
        0.000000000000000
        0.000000000000000
        0.000000000000000
        0.000000000000000
        0.000000000000400
       -0.000000000000003
        0.000000000000000
        0.000000000000000
        0.000000000000000
        0.000000000000000
        0.000000000000000
        0.000000000000000
        0.000000000000000
        0.000000000000000
        0.000000000000000
        0.000000000000000
        0.000000000000000
        0.000000000000000
        0.000000000000000
        0.000000000000000
        0.000000000000611
        0.000000000002122
       -0.000000000002953
       -0.000000000001545
        0.000000000000000
        0.000000000000000
        0.000000000000000
        0.000000000000000
       -0.000000000000181
        0.000000000001369
       -0.000000000023775
        0.000000000009995
       -0.000000000000671
       -0.000000000001593
        0.000000000000000
        0.000000000000000
        0.000000000000000
        0.000000000012618
       -0.000000000181980
       -0.000000000256583
        0.000000000290185
        0.000000000151877
       -0.000000000013179
        0.000000000001537
        0.000000000000000
        0.000000000000000
        0.000000000002700
       -0.000000000054863
       -0.000000000643963
        0.000000000296142
        0.000000000672647
        0.000000000062598
       -0.000000000005963
        0.000000000000000
        0.000000000000000
        0.000000000000166
        0.000000000010300
       -0.000000000140852
       -0.000000000261745
        0.000000000110792
        0.000000000161203
       -0.000000000010675
        0.000000000000000
        0.000000000000000
        0.000000000000000
        0.000000000007263
       -0.000000000002191
       -0.000000000002269
        0.000000000002880
        0.000000000003962
       -0.000000000001117
        0.000000000000000
        0.000000000000000
        0.000000000000000
        0.000000000000000
        0.000000000003250
       -0.000000000000304
       -0.000000000000164
       -0.000000000001907
        0.000000000000000
        0.000000000000000
        0.000000000000000
        0.000000000000000
        0.000000000000000
        0.000000000000000
        0.000000000000000
        0.000000000000000
        0.000000000000000
        0.000000000000000
        0.000000000000000
        0.000000000000000
        0.000000000000000
        0.000000000000000
        0.000000000000000
        0.000000000000000
        0.000000000000000
        0.000000000000000
        0.000000000000000
        0.000000000000000
        0.000000000000000
        0.000000000000000
        0.000000000000000
        0.000000000000662
       -0.000000000001737
        0.000000000000000
        0.000000000000000
        0.000000000000000
        0.000000000000000
        0.000000000000000
        0.000000000000000
        0.000000000000871
        0.000000000000806
       -0.000000000001026
       -0.000000000002399
        0.000000000000000
        0.000000000000000
        0.000000000000000
        0.000000000000000
       -0.000000000001375
        0.000000000011066
        0.000000000008069
       -0.000000000018217
       -0.000000000008055
       -0.000000000000909
        0.000000000000000
        0.000000000000000
        0.000000000000000
       -0.000000000000672
        0.000000000000719
        0.000000000034308
       -0.000000000016431
       -0.000000000035134
       -0.000000000004587
       -0.000000000000081
        0.000000000000000
        0.000000000000000
        0.000000000000000
        0.000000000002986
        0.000000000004741
        0.000000000017398
       -0.000000000011180
       -0.000000000008135
        0.000000000000210
        0.000000000000000
        0.000000000000000
        0.000000000000000
        0.000000000000000
        0.000000000004477
       -0.000000000002843
        0.000000000002127
       -0.000000000003320
        0.000000000000000
        0.000000000000000
        0.000000000000000
        0.000000000000000
        0.000000000000000
        0.000000000000000
        0.000000000000985
       -0.000000000001828
        0.000000000000000
        0.000000000000000
        0.000000000000000
        0.000000000000000
        0.000000000000000
        0.000000000000000
        0.000000000000000
        0.000000000000000
        0.000000000000000
        0.000000000000000
        0.000000000000000
        0.000000000000000
        0.000000000000000
        0.000000000000000
        0.000000000000000
        0.000000000000000
        0.000000000000000
        0.000000000000000
        0.000000000000000
        0.000000000000000
        0.000000000000000
        0.000000000000000
        0.000000000000000
        0.000000000000000
        0.000000000000000
        0.000000000000000
        0.000000000000000
        0.000000000000000
        0.000000000000000
        0.000000000000000
        0.000000000000000
        0.000000000000000
        0.000000000000000
        0.000000000000000
        0.000000000000000
        0.000000000000000
        0.000000000000000
        0.000000000000000
        0.000000000000000
        0.000000000000000
        0.000000000000000
        0.000000000000000
        0.000000000001790
       -0.000000000001725
        0.000000000000000
        0.000000000000000
        0.000000000000000
        0.000000000000000
        0.000000000000000
        0.000000000000000
        0.000000000000000
        0.000000000000552
        0.000000000001638
       -0.000000000000623
        0.000000000000000
        0.000000000000000
        0.000000000000000
        0.000000000000000
        0.000000000000000
        0.000000000000000
        0.000000000000000
        0.000000000001655
       -0.000000000000620
        0.000000000000000
        0.000000000000000
        0.000000000000000
        0.000000000000000
        0.000000000000000
        0.000000000000000
        0.000000000000000
        0.000000000000000
        0.000000000000000
        0.000000000000000
        0.000000000000000
        0.000000000000000
        0.000000000000000
        0.000000000000000
        0.000000000000000
        0.000000000000000
        0.000000000000000
        0.000000000000000
        0.000000000000000
        0.000000000000000
        0.000000000000000
        0.000000000000000
        0.000000000000000
        0.000000000000000
        0.000000000000000
        0.000000000000000
        0.000000000000000
        0.000000000000000
        0.000000000000000
        0.000000000000000
END_DATAGRID_3D
END_BLOCK_DATAGRID_3D
