ATOMS
         C    7.558905    7.558905    7.558905
         H    8.755769    8.755769    8.755769
         H    6.362040    6.362040    8.755769
         H    8.755769    6.362040    6.362040
         H    6.362040    8.755769    6.362040
BEGIN_BLOCK_DATAGRID_3D
units: coords = b, function = sqrt(b^-3)
BEGIN_DATAGRID_3D_function
      9      9      9
0.0 0.0 0.0
   15.117809    0.000000    0.000000
    0.000000   15.117809    0.000000
    0.000000    0.000000   15.117809
        0.000000000000000
        0.000000000000000
        0.000000000000000
        0.000000000000000
        0.000000000000000
        0.000000000000000
        0.000000000000000
        0.000000000000000
        0.000000000000000
        0.000000000000000
        0.000000000000000
        0.000000000000000
        0.000000000000000
        0.000000000000000
        0.000000000000000
        0.000000000000000
        0.000000000000000
        0.000000000000000
        0.000000000000000
        0.000000000000000
        0.000000000000000
        0.000000000000000
        0.000000000000000
        0.000000000000000
        0.000000000000000
        0.000000000000000
        0.000000000000000
        0.000000000000000
        0.000000000000000
        0.000000000000000
        0.000000000000000
       -0.000146670186769
        0.000055476289550
        0.000000000000000
        0.000000000000000
        0.000000000000000
        0.000000000000000
        0.000000000000000
        0.000000000000000
       -0.000324720762840
       -0.000135840850994
        0.000142471602911
        0.000000000000000
        0.000000000000000
        0.000000000000000
        0.000000000000000
        0.000000000000000
        0.000000000000000
       -0.000210875853223
       -0.000035574165622
        0.000000000000000
        0.000000000000000
        0.000000000000000
        0.000000000000000
        0.000000000000000
        0.000000000000000
        0.000000000000000
        0.000000000000000
        0.000000000000000
        0.000000000000000
        0.000000000000000
        0.000000000000000
        0.000000000000000
        0.000000000000000
        0.000000000000000
        0.000000000000000
        0.000000000000000
        0.000000000000000
        0.000000000000000
        0.000000000000000
        0.000000000000000
        0.000000000000000
        0.000000000000000
        0.000000000000000
        0.000000000000000
        0.000000000000000
        0.000000000000000
        0.000000000000000
        0.000000000000000
        0.000000000000000
        0.000000000000000
        0.000000000000000
        0.000000000000000
        0.000000000000000
        0.000000000000000
        0.000000000000000
        0.000000000000000
        0.000000000000000
        0.000000000000000
        0.000000000000000
        0.000000000000000
        0.000000000000000
        0.000000000000000
        0.000000000000000
       -0.000316825459098
       -0.000108128058929
        0.000000000000000
        0.000000000000000
        0.000000000000000
        0.000000000000000
        0.000000000000000
        0.000000000000000
       -0.001148008280410
       -0.000958402002933
       -0.000013962920949
        0.000317180376805
        0.000000000000000
        0.000000000000000
        0.000000000000000
        0.000000000000000
       -0.001515790446372
       -0.002457832586674
       -0.001370088808210
        0.000651334237650
        0.001043867076519
        0.000471554263494
        0.000000000000000
        0.000000000000000
       -0.000740891273260
       -0.002114641876073
       -0.002779768836313
       -0.000788275526381
        0.001624604639023
        0.001629157335365
        0.000621034754838
        0.000000000000000
        0.000000000000000
       -0.000583826892716
       -0.001470868825062
       -0.001590789891121
        0.000214973981828
        0.001694014276858
        0.001228567150636
        0.000000000000000
        0.000000000000000
        0.000000000000000
        0.000000000000000
       -0.000515264278306
       -0.000412988470681
        0.000472999146056
        0.000860823686338
        0.000000000000000
        0.000000000000000
        0.000000000000000
        0.000000000000000
        0.000000000000000
        0.000000000000000
       -0.000004109773831
        0.000197014323152
        0.000000000000000
        0.000000000000000
        0.000000000000000
        0.000000000000000
        0.000000000000000
        0.000000000000000
        0.000000000000000
        0.000000000000000
        0.000000000000000
        0.000000000000000
        0.000000000000000
        0.000000000000000
        0.000000000000000
        0.000000000000000
        0.000000000000000
        0.000000000000000
        0.000000000000000
        0.000000000000000
        0.000000000000000
        0.000000000000000
        0.000000000000000
        0.000000000000000
        0.000000000000000
        0.000000000000000
        0.000000000000000
       -0.001524977482685
       -0.001497875512368
       -0.000414755463477
        0.000148275040392
        0.000000000000000
        0.000000000000000
        0.000000000000000
        0.000000000000000
       -0.003085877052702
       -0.005833901295977
       -0.004637524138125
        0.000073583632632
        0.001398360914151
        0.000673060236578
        0.000000000000000
        0.000000000000000
       -0.002200195389856
       -0.007439120949436
       -0.012733285312297
       -0.007882534900319
        0.004583975446762
        0.004891177520066
        0.001888318610889
        0.000000000000000
        0.000000000000000
       -0.003094086420587
       -0.009739016869865
       -0.016060795894198
       -0.003609626671939
        0.011517460289461
        0.008223213280043
        0.002765788161612
        0.000000000000000
        0.000000000000000
       -0.002198536935020
       -0.006247488257541
       -0.008216973235794
        0.003339496735024
        0.010157575418566
        0.006569863983369
        0.002022804266109
        0.000000000000000
        0.000000000000000
       -0.000821926904528
       -0.002007275967220
       -0.001429688368981
        0.003122085649950
        0.004964825406962
        0.002809158226911
        0.000000000000000
        0.000000000000000
        0.000000000000000
        0.000000000000000
       -0.000297103665540
        0.000104671145276
        0.001169762393527
        0.001347694230635
        0.000000000000000
        0.000000000000000
        0.000000000000000
        0.000000000000000
        0.000000000000000
        0.000000000000000
        0.000000000000000
        0.000000000000000
        0.000000000000000
        0.000000000000000
        0.000000000000000
        0.000000000000000
        0.000000000000000
        0.000000000000000
        0.000000000000000
        0.000000000000000
       -0.000616026769222
       -0.000314183356136
        0.000000000000000
        0.000000000000000
        0.000000000000000
        0.000000000000000
        0.000000000000000
       -0.002343758864317
       -0.004409256108972
       -0.003985578612645
       -0.001195894119984
        0.000302614401757
        0.000284983485035
        0.000000000000000
        0.000000000000000
       -0.002651195265792
       -0.009407526670056
       -0.017882723996741
       -0.015327456388947
       -0.000026730455956
        0.003340627962768
        0.001547858038126
        0.000000000000000
        0.000000000000000
       -0.006000689708531
       -0.022082102231902
       -0.047097583439138
       -0.034582388527649
        0.019323653376711
        0.014298729330616
        0.004543385820570
        0.000834328046080
       -0.001176869124218
       -0.007528303280673
       -0.029577106463455
       -0.066550157943242
       -0.009575823099164
        0.056557281289188
        0.027203724481112
        0.007135284522941
        0.001131372514547
       -0.000882020335030
       -0.004944539423748
       -0.016587807278641
       -0.027737802393474
        0.024590805456736
        0.042874975644274
        0.021007141936280
        0.005805498544200
        0.000000000000000
        0.000000000000000
       -0.001758782675302
       -0.004244776134545
       -0.002261849423901
        0.012955069064826
        0.016808260591285
        0.009112075229146
        0.002605261514273
        0.000000000000000
        0.000000000000000
       -0.000342843598171
       -0.000513454357322
        0.000795069510092
        0.003593040227928
        0.004214344081425
        0.002297895847815
        0.000000000000000
        0.000000000000000
        0.000000000000000
        0.000000000000000
        0.000000000000000
        0.000266570495423
        0.000570632946149
        0.000000000000000
        0.000000000000000
        0.000000000000000
        0.000000000000000
        0.000000000000000
        0.000000000000000
        0.000000000000000
       -0.001012424167576
       -0.001067642643764
       -0.000419943345978
        0.000000000000000
        0.000000000000000
        0.000000000000000
        0.000000000000000
       -0.001260909614050
       -0.004071998512670
       -0.007123959158599
       -0.006195435803632
       -0.001954701356151
        0.000256891363406
        0.000319185724997
        0.000000000000000
        0.000000000000000
       -0.004511972647216
       -0.015994862720195
       -0.033534681794502
       -0.028369581035599
       -0.002171300947583
        0.004083993966611
        0.001932993567291
        0.000000000000000
       -0.001395216882195
       -0.009257014404675
       -0.039606078902098
       -0.105751721852273
       -0.075259082584957
        0.027223834035181
        0.020959879064212
        0.006171464329072
        0.001038314178125
       -0.001827568493183
       -0.010605116486276
       -0.048561090959831
       -0.128822525487177
       -0.000000962631552
        0.128818854124670
        0.048559371920528
        0.010604369203835
        0.001827405981546
       -0.001056670805631
       -0.006283386350564
       -0.021512500405235
       -0.028663701839350
        0.075258076086141
        0.107187671173654
        0.040156296279968
        0.009367870442097
        0.001413359786192
        0.000000000000000
       -0.002018411661176
       -0.004392746104765
        0.001619390336136
        0.028369351810003
        0.034085615831150
        0.016302695519399
        0.004596957610088
        0.000000000000000
        0.000000000000000
       -0.000351010177525
       -0.000342201023185
        0.001843219745782
        0.006195399936847
        0.007235271021249
        0.004157094262264
        0.001292627337098
        0.000000000000000
        0.000000000000000
        0.000000000000000
        0.000000000000000
        0.000401684671435
        0.001067637495598
        0.001030667324329
        0.000000000000000
        0.000000000000000
        0.000000000000000
        0.000000000000000
        0.000000000000000
        0.000000000000000
       -0.000907170895357
       -0.000816335745559
        0.000000000000000
        0.000000000000000
        0.000000000000000
        0.000000000000000
        0.000000000000000
       -0.001167170971263
       -0.003658278226044
       -0.006187594507152
       -0.005093025449173
       -0.001593631729683
        0.000086714243127
        0.000000000000000
        0.000000000000000
        0.000000000000000
       -0.003985159030988
       -0.013999024653915
       -0.028525702972551
       -0.020378203737645
       -0.002359153931439
        0.002577749958031
        0.001257918589068
        0.000000000000000
       -0.001208658907212
       -0.007694139579443
       -0.032285830713855
       -0.085449763988028
       -0.043944178693285
        0.013917377854452
        0.013639838975006
        0.004469265032854
        0.000000000000000
       -0.001275018563608
       -0.008012097474566
       -0.031541472843879
       -0.067865265748380
        0.009574816600349
        0.077854223919647
        0.033912450863068
        0.008404050248228
        0.001320301449770
        0.000000000000000
       -0.004274753026676
       -0.012566394434763
       -0.009696545920327
        0.053934495510773
        0.093860684154597
        0.034573011223820
        0.008094416229198
        0.001256169287759
        0.000000000000000
       -0.001212237359191
       -0.002282848403013
        0.003433124559682
        0.022750268497993
        0.030813382810294
        0.014902359676045
        0.004195702018614
        0.000000000000000
        0.000000000000000
        0.000000000000000
       -0.000040959200272
        0.001788448635608
        0.005485509422969
        0.006588255929948
        0.003868917221892
        0.001224930990871
        0.000000000000000
        0.000000000000000
        0.000000000000000
        0.000000000000000
        0.000000000000000
        0.000861724161821
        0.000954768207482
        0.000000000000000
        0.000000000000000
        0.000000000000000
        0.000000000000000
        0.000000000000000
        0.000000000000000
        0.000000000000000
        0.000000000000000
        0.000000000000000
        0.000000000000000
        0.000000000000000
        0.000000000000000
        0.000000000000000
        0.000000000000000
       -0.001705019758565
       -0.002940851066060
       -0.002317139034405
       -0.000732024583042
        0.000000000000000
        0.000000000000000
        0.000000000000000
        0.000000000000000
       -0.001842781156983
       -0.006183682791458
       -0.010731755269574
       -0.007272946738986
       -0.000995679602351
        0.000911870203859
        0.000000000000000
        0.000000000000000
        0.000000000000000
       -0.003545404771270
       -0.011996312530919
       -0.022570579160658
       -0.010762631407843
        0.004291531241280
        0.005119961203808
        0.001840375837232
        0.000000000000000
        0.000000000000000
       -0.003436297887805
       -0.010648591955095
       -0.015854495564167
        0.003609397446343
        0.020396854594106
        0.012163476205967
        0.003764163015767
        0.000000000000000
        0.000000000000000
       -0.001663237235127
       -0.004251254123634
       -0.001716314124762
        0.015305347009366
        0.026202676907577
        0.013351810118747
        0.003855241445851
        0.000000000000000
        0.000000000000000
        0.000000000000000
       -0.000635318495690
        0.001864602355657
        0.008788273118309
        0.012087503809537
        0.006792217089534
        0.001991473161355
        0.000000000000000
        0.000000000000000
        0.000000000000000
        0.000000000000000
        0.000909286368965
        0.002645227246839
        0.003250851442759
        0.001853759456720
        0.000000000000000
        0.000000000000000
        0.000000000000000
        0.000000000000000
        0.000000000000000
        0.000000000000000
        0.000000000000000
        0.000000000000000
        0.000000000000000
        0.000000000000000
        0.000000000000000
        0.000000000000000
        0.000000000000000
        0.000000000000000
        0.000000000000000
        0.000000000000000
        0.000000000000000
        0.000000000000000
        0.000000000000000
        0.000000000000000
        0.000000000000000
        0.000000000000000
        0.000000000000000
       -0.000774019218941
       -0.000624849094323
        0.000000000000000
        0.000000000000000
        0.000000000000000
        0.000000000000000
        0.000000000000000
        0.000000000000000
       -0.001486859145799
       -0.002423191450103
       -0.001620375786934
       -0.000245154038745
        0.000000000000000
        0.000000000000000
        0.000000000000000
        0.000000000000000
       -0.000926187676718
       -0.002700863758304
       -0.003801735105938
       -0.001714959203073
        0.000926698074884
        0.001156042940305
        0.000000000000000
        0.000000000000000
        0.000000000000000
       -0.000871028518315
       -0.002299557659782
       -0.002500970576503
        0.000788239659596
        0.003655965026076
        0.002784828290305
        0.000990778307256
        0.000000000000000
        0.000000000000000
        0.000000000000000
       -0.000868927618217
       -0.000162974886689
        0.002870019618534
        0.004741027572315
        0.003127664547130
        0.001038360212411
        0.000000000000000
        0.000000000000000
        0.000000000000000
        0.000000000000000
        0.000532317166690
        0.002105753737403
        0.002850058900231
        0.001684854120307
        0.000000000000000
        0.000000000000000
        0.000000000000000
        0.000000000000000
        0.000000000000000
        0.000000000000000
        0.000744653666336
        0.000886239237398
        0.000000000000000
        0.000000000000000
        0.000000000000000
        0.000000000000000
        0.000000000000000
        0.000000000000000
        0.000000000000000
        0.000000000000000
        0.000000000000000
        0.000000000000000
        0.000000000000000
        0.000000000000000
        0.000000000000000
        0.000000000000000
        0.000000000000000
        0.000000000000000
        0.000000000000000
        0.000000000000000
        0.000000000000000
        0.000000000000000
        0.000000000000000
        0.000000000000000
        0.000000000000000
        0.000000000000000
        0.000000000000000
        0.000000000000000
        0.000000000000000
        0.000000000000000
        0.000000000000000
        0.000000000000000
        0.000000000000000
        0.000000000000000
        0.000000000000000
        0.000000000000000
        0.000000000000000
        0.000000000000000
        0.000000000000000
        0.000000000000000
        0.000000000000000
        0.000000000000000
        0.000000000000000
        0.000000000000000
       -0.000429724546710
       -0.000210128633789
        0.000000000000000
        0.000000000000000
        0.000000000000000
        0.000000000000000
        0.000000000000000
        0.000000000000000
        0.000000000000000
       -0.000286018733301
        0.000135835702827
        0.000468252375439
        0.000000000000000
        0.000000000000000
        0.000000000000000
        0.000000000000000
        0.000000000000000
        0.000000000000000
        0.000000000000000
        0.000392367579368
        0.000585108561795
        0.000000000000000
        0.000000000000000
        0.000000000000000
        0.000000000000000
        0.000000000000000
        0.000000000000000
        0.000000000000000
        0.000000000000000
        0.000000000000000
        0.000000000000000
        0.000000000000000
        0.000000000000000
        0.000000000000000
        0.000000000000000
        0.000000000000000
        0.000000000000000
        0.000000000000000
        0.000000000000000
        0.000000000000000
        0.000000000000000
        0.000000000000000
        0.000000000000000
        0.000000000000000
        0.000000000000000
        0.000000000000000
        0.000000000000000
        0.000000000000000
        0.000000000000000
        0.000000000000000
        0.000000000000000
END_DATAGRID_3D
END_BLOCK_DATAGRID_3D
