ATOMS
         C    7.558905    7.558905    7.558905
         H    8.755769    8.755769    8.755769
         H    6.362040    6.362040    8.755769
         H    8.755769    6.362040    6.362040
         H    6.362040    8.755769    6.362040
BEGIN_BLOCK_DATAGRID_3D
units: coords = b, function = sqrt(b^-3)
BEGIN_DATAGRID_3D_function
      9      9      9
0.0 0.0 0.0
   15.117809    0.000000    0.000000
    0.000000   15.117809    0.000000
    0.000000    0.000000   15.117809
        0.000000000000000
        0.000000000000000
        0.000000000000000
        0.000000000000000
        0.000000000000000
        0.000000000000000
        0.000000000000000
        0.000000000000000
        0.000000000000000
        0.000000000000000
        0.000000000000000
        0.000000000000000
        0.000000000000000
        0.000000000000000
        0.000000000000000
        0.000000000000000
        0.000000000000000
        0.000000000000000
        0.000000000000000
        0.000000000000000
        0.000000000000000
        0.000000000000000
        0.000000000000000
        0.000000000000000
        0.000000000000000
        0.000000000000000
        0.000000000000000
        0.000000000000000
        0.000000000000000
        0.000000000000000
        0.000000000000000
        0.000768212398340
        0.000535380151589
        0.000000000000000
        0.000000000000000
        0.000000000000000
        0.000000000000000
        0.000000000000000
        0.000000000000000
        0.001227433476534
        0.001536515124347
        0.000833978081891
        0.000000000000000
        0.000000000000000
        0.000000000000000
        0.000000000000000
        0.000000000000000
        0.000000000000000
        0.001222350439669
        0.001293197097043
        0.000000000000000
        0.000000000000000
        0.000000000000000
        0.000000000000000
        0.000000000000000
        0.000000000000000
        0.000000000000000
        0.000000000000000
        0.000000000000000
        0.000000000000000
        0.000000000000000
        0.000000000000000
        0.000000000000000
        0.000000000000000
        0.000000000000000
        0.000000000000000
        0.000000000000000
        0.000000000000000
        0.000000000000000
        0.000000000000000
        0.000000000000000
        0.000000000000000
        0.000000000000000
        0.000000000000000
        0.000000000000000
        0.000000000000000
        0.000000000000000
        0.000000000000000
        0.000000000000000
        0.000000000000000
        0.000000000000000
        0.000000000000000
        0.000000000000000
        0.000000000000000
        0.000000000000000
        0.000000000000000
        0.000000000000000
        0.000000000000000
        0.000000000000000
        0.000000000000000
        0.000000000000000
        0.000000000000000
        0.000000000000000
        0.000000000000000
        0.000024115307379
       -0.000044576708806
        0.000000000000000
        0.000000000000000
        0.000000000000000
        0.000000000000000
        0.000000000000000
        0.000000000000000
        0.000879555121526
        0.000959934226645
        0.000415561265923
        0.000046689823319
        0.000000000000000
        0.000000000000000
        0.000000000000000
        0.000000000000000
        0.001828090765971
        0.003847394581609
        0.004374371373599
        0.002421605908587
        0.000656175187983
        0.000087280391101
        0.000000000000000
        0.000000000000000
        0.001117810703629
        0.003942000371977
        0.008010135453666
        0.008916257405007
        0.005055509191474
        0.001548486153232
        0.000237442146489
        0.000000000000000
        0.000000000000000
        0.001182301777560
        0.004173132137478
        0.008204439868078
        0.008691242825550
        0.004791699887595
        0.001420108420844
        0.000000000000000
        0.000000000000000
        0.000000000000000
        0.000000000000000
        0.002193713403451
        0.004413715520582
        0.004530503372649
        0.002368623277804
        0.000000000000000
        0.000000000000000
        0.000000000000000
        0.000000000000000
        0.000000000000000
        0.000000000000000
        0.001314136654679
        0.001331114190946
        0.000000000000000
        0.000000000000000
        0.000000000000000
        0.000000000000000
        0.000000000000000
        0.000000000000000
        0.000000000000000
        0.000000000000000
        0.000000000000000
        0.000000000000000
        0.000000000000000
        0.000000000000000
        0.000000000000000
        0.000000000000000
        0.000000000000000
        0.000000000000000
        0.000000000000000
        0.000000000000000
        0.000000000000000
        0.000000000000000
        0.000000000000000
        0.000000000000000
        0.000000000000000
        0.000000000000000
        0.000000000000000
       -0.000271682858710
       -0.000687580715281
       -0.000808431554631
       -0.000469135440842
        0.000000000000000
        0.000000000000000
        0.000000000000000
        0.000000000000000
        0.000893882964208
        0.001433786853939
        0.000529392590320
       -0.001029864888211
       -0.000948446742027
       -0.000349760203084
        0.000000000000000
        0.000000000000000
        0.001469700676759
        0.005573722222558
        0.011962265626498
        0.012940521855633
        0.004037913167852
        0.000065971654599
       -0.000284551361434
        0.000000000000000
        0.000000000000000
        0.003429121650689
        0.013686601313615
        0.034033262792450
        0.040828489529472
        0.017353205395422
        0.003454714514050
        0.000282258673569
        0.000000000000000
        0.000000000000000
        0.003792105936663
        0.015273014325591
        0.037053635444893
        0.038445794679161
        0.017168838418719
        0.004255110938201
        0.000535306802740
        0.000000000000000
        0.000000000000000
        0.002033142681302
        0.007835267265043
        0.016368742881103
        0.016611733679907
        0.008394955056646
        0.002234728966927
        0.000000000000000
        0.000000000000000
        0.000000000000000
        0.000000000000000
        0.002152496907302
        0.004315915485566
        0.004398865771607
        0.002276640139052
        0.000000000000000
        0.000000000000000
        0.000000000000000
        0.000000000000000
        0.000000000000000
        0.000000000000000
        0.000000000000000
        0.000000000000000
        0.000000000000000
        0.000000000000000
        0.000000000000000
        0.000000000000000
        0.000000000000000
        0.000000000000000
        0.000000000000000
        0.000000000000000
       -0.000665170277839
       -0.000593534946268
        0.000000000000000
        0.000000000000000
        0.000000000000000
        0.000000000000000
        0.000000000000000
       -0.000700467756643
       -0.002112118452455
       -0.003613154348979
       -0.003219702268968
       -0.001607559427442
       -0.000482493916372
        0.000000000000000
        0.000000000000000
        0.000092378117974
       -0.000437653275547
       -0.003763765451537
       -0.009795755606486
       -0.010042865099662
       -0.004669299900292
       -0.001324294501650
        0.000000000000000
        0.000000000000000
        0.001992126311013
        0.007066520609419
        0.013642720932460
        0.004916841497317
       -0.013106424332622
       -0.006784268796433
       -0.001914158304883
       -0.000332271910119
        0.000781214019241
        0.005523562655729
        0.026955167056745
        0.087365051208144
        0.108309974331358
        0.025647872680969
       -0.000121347299328
       -0.001083472688296
       -0.000267677673628
        0.000870918806077
        0.006448302455576
        0.032670130438557
        0.108272217096605
        0.108095572626084
        0.034107888358498
        0.005082255620747
        0.000211415419831
        0.000000000000000
        0.000000000000000
        0.003709024350475
        0.014894647325889
        0.035928549965214
        0.036629150533918
        0.015912342407200
        0.003774817824363
        0.000425264725842
        0.000000000000000
        0.000000000000000
        0.001136773453699
        0.003992250404417
        0.007753685886523
        0.008053033880961
        0.004315540775427
        0.001218083034269
        0.000000000000000
        0.000000000000000
        0.000000000000000
        0.000000000000000
        0.000000000000000
        0.001132147788783
        0.001178668022472
        0.000000000000000
        0.000000000000000
        0.000000000000000
        0.000000000000000
        0.000000000000000
        0.000000000000000
        0.000000000000000
       -0.000872765356402
       -0.001309143373529
       -0.000883598436053
        0.000000000000000
        0.000000000000000
        0.000000000000000
        0.000000000000000
       -0.000470289493216
       -0.002035631984519
       -0.005256722587298
       -0.007596837667052
       -0.005875444795401
       -0.002642319611200
       -0.000684384000990
        0.000000000000000
        0.000000000000000
       -0.000901005229441
       -0.005418321045958
       -0.019330781244493
       -0.034786705771311
       -0.024451328617937
       -0.009186176183120
       -0.002261038659299
        0.000000000000000
        0.000114395004939
        0.000244197946887
       -0.003672624031885
       -0.032353824987689
       -0.092282176246256
       -0.063934454910568
       -0.019189621161727
       -0.004026913177880
       -0.000551871423728
        0.000650635450158
        0.003775543715469
        0.017288308150784
        0.045862304024981
        0.000000342707929
       -0.045860996977610
       -0.017287696152977
       -0.003775277674306
       -0.000650577594142
        0.000758505275108
        0.005288363857902
        0.025431542785942
        0.080207265243410
        0.092282534571434
        0.016082409679885
       -0.002568441753738
       -0.001505269124293
       -0.000320952768287
        0.000000000000000
        0.003225897319692
        0.012676544797873
        0.030692992894777
        0.034786787378264
        0.013089464639537
        0.001928279726468
       -0.000063699231320
        0.000000000000000
        0.000000000000000
        0.001044151519795
        0.003607137902251
        0.007136726689929
        0.007596850436040
        0.003995501124914
        0.001070889847960
        0.000110559971336
        0.000000000000000
        0.000000000000000
        0.000000000000000
        0.000000000000000
        0.001090195657090
        0.001309145206335
        0.000666173659877
        0.000000000000000
        0.000000000000000
        0.000000000000000
        0.000000000000000
        0.000000000000000
        0.000000000000000
       -0.000904086662135
       -0.001091194993639
        0.000000000000000
        0.000000000000000
        0.000000000000000
        0.000000000000000
        0.000000000000000
       -0.000599190860875
       -0.002507065516714
       -0.005833884827336
       -0.007519021851702
       -0.005248544581889
       -0.002067031714309
        0.000000000000000
        0.000000000000000
        0.000000000000000
       -0.001664114891982
       -0.008399643946881
       -0.024967826420544
       -0.033986429023098
       -0.021056390934561
       -0.007936530340911
       -0.001800601373937
        0.000000000000000
       -0.000126612896348
       -0.001948787042985
       -0.015270551941380
       -0.067976138739153
       -0.101205548665392
       -0.054326620855806
       -0.017416980204759
       -0.003869349691602
        0.000000000000000
        0.000091686260806
        0.000008999149060
       -0.005196248302689
       -0.039511610952421
       -0.108309616006179
       -0.073499917911652
       -0.021636715616135
       -0.004448709613877
       -0.000605146518386
        0.000000000000000
        0.001666049748889
        0.005268743600979
        0.006576643791740
       -0.011806414657196
       -0.027188504516944
       -0.010614634190923
       -0.002585044902181
       -0.000411969238123
        0.000000000000000
        0.001283048430736
        0.004599561557810
        0.008907989413266
        0.007153148932085
       -0.000917538019641
       -0.001825413988069
       -0.000720479085204
        0.000000000000000
        0.000000000000000
        0.000000000000000
        0.001549454876546
        0.003045156123311
        0.003079161690635
        0.001299959306268
        0.000122446083715
       -0.000055053042002
        0.000000000000000
        0.000000000000000
        0.000000000000000
        0.000000000000000
        0.000000000000000
        0.000577699173892
        0.000365479355096
        0.000000000000000
        0.000000000000000
        0.000000000000000
        0.000000000000000
        0.000000000000000
        0.000000000000000
        0.000000000000000
        0.000000000000000
        0.000000000000000
        0.000000000000000
        0.000000000000000
        0.000000000000000
        0.000000000000000
        0.000000000000000
       -0.001439717889622
       -0.003306202740806
       -0.003990386461517
       -0.002495825630488
        0.000000000000000
        0.000000000000000
        0.000000000000000
        0.000000000000000
       -0.001084475895018
       -0.004919191528863
       -0.012039128759467
       -0.015133979284773
       -0.009808016715871
       -0.003559457980989
        0.000000000000000
        0.000000000000000
        0.000000000000000
       -0.001747196478170
       -0.008778010946584
       -0.026092911900223
       -0.035803073168340
       -0.022312886946080
       -0.008416823454748
       -0.001910643450835
        0.000000000000000
        0.000000000000000
       -0.001104229560437
       -0.006428377561700
       -0.022671051142166
       -0.040828407922518
       -0.028715069373822
       -0.010712610970702
       -0.002606996564187
        0.000000000000000
        0.000000000000000
       -0.000094274128049
       -0.001411813940295
       -0.006818041664769
       -0.015583128530033
       -0.014998316287155
       -0.006560685542959
       -0.001760222225420
        0.000000000000000
        0.000000000000000
        0.000000000000000
        0.000430905545654
       -0.000020670676636
       -0.002007107073410
       -0.003299622423406
       -0.001967493440986
       -0.000598844400952
        0.000000000000000
        0.000000000000000
        0.000000000000000
        0.000000000000000
        0.000490875992334
        0.000279110272159
       -0.000201251305987
       -0.000243611917804
        0.000000000000000
        0.000000000000000
        0.000000000000000
        0.000000000000000
        0.000000000000000
        0.000000000000000
        0.000000000000000
        0.000000000000000
        0.000000000000000
        0.000000000000000
        0.000000000000000
        0.000000000000000
        0.000000000000000
        0.000000000000000
        0.000000000000000
        0.000000000000000
        0.000000000000000
        0.000000000000000
        0.000000000000000
        0.000000000000000
        0.000000000000000
        0.000000000000000
        0.000000000000000
       -0.001037113763673
       -0.001178800080711
        0.000000000000000
        0.000000000000000
        0.000000000000000
        0.000000000000000
        0.000000000000000
        0.000000000000000
       -0.001480934385771
       -0.003404002775822
       -0.004122024062559
       -0.002587808769240
        0.000000000000000
        0.000000000000000
        0.000000000000000
        0.000000000000000
       -0.000644719184736
       -0.002687947249775
       -0.006284638808891
       -0.008157230796291
       -0.005724703694057
       -0.002269057100884
        0.000000000000000
        0.000000000000000
        0.000000000000000
       -0.000543948677050
       -0.002370494454245
       -0.006130131351034
       -0.008916244636019
       -0.006935452861961
       -0.003119915916473
       -0.000811266176143
        0.000000000000000
        0.000000000000000
        0.000000000000000
       -0.000979103646068
       -0.002914356910753
       -0.004908364031944
       -0.004341348871287
       -0.002141288531710
       -0.000624827349475
        0.000000000000000
        0.000000000000000
        0.000000000000000
        0.000000000000000
       -0.000660361987902
       -0.001368404669767
       -0.001425244126541
       -0.000759437181964
        0.000000000000000
        0.000000000000000
        0.000000000000000
        0.000000000000000
        0.000000000000000
        0.000000000000000
       -0.000176427080779
       -0.000232439840103
        0.000000000000000
        0.000000000000000
        0.000000000000000
        0.000000000000000
        0.000000000000000
        0.000000000000000
        0.000000000000000
        0.000000000000000
        0.000000000000000
        0.000000000000000
        0.000000000000000
        0.000000000000000
        0.000000000000000
        0.000000000000000
        0.000000000000000
        0.000000000000000
        0.000000000000000
        0.000000000000000
        0.000000000000000
        0.000000000000000
        0.000000000000000
        0.000000000000000
        0.000000000000000
        0.000000000000000
        0.000000000000000
        0.000000000000000
        0.000000000000000
        0.000000000000000
        0.000000000000000
        0.000000000000000
        0.000000000000000
        0.000000000000000
        0.000000000000000
        0.000000000000000
        0.000000000000000
        0.000000000000000
        0.000000000000000
        0.000000000000000
        0.000000000000000
        0.000000000000000
        0.000000000000000
        0.000000000000000
       -0.000994289313021
       -0.001205724068209
        0.000000000000000
        0.000000000000000
        0.000000000000000
        0.000000000000000
        0.000000000000000
        0.000000000000000
        0.000000000000000
       -0.001010003175846
       -0.001536513291540
       -0.001051402858067
        0.000000000000000
        0.000000000000000
        0.000000000000000
        0.000000000000000
        0.000000000000000
        0.000000000000000
        0.000000000000000
       -0.000855683502287
       -0.000763435742761
        0.000000000000000
        0.000000000000000
        0.000000000000000
        0.000000000000000
        0.000000000000000
        0.000000000000000
        0.000000000000000
        0.000000000000000
        0.000000000000000
        0.000000000000000
        0.000000000000000
        0.000000000000000
        0.000000000000000
        0.000000000000000
        0.000000000000000
        0.000000000000000
        0.000000000000000
        0.000000000000000
        0.000000000000000
        0.000000000000000
        0.000000000000000
        0.000000000000000
        0.000000000000000
        0.000000000000000
        0.000000000000000
        0.000000000000000
        0.000000000000000
        0.000000000000000
        0.000000000000000
        0.000000000000000
END_DATAGRID_3D
END_BLOCK_DATAGRID_3D
