ATOMS
         C    7.558905    7.558905    7.558905
         H    8.755769    8.755769    8.755769
         H    6.362040    6.362040    8.755769
         H    8.755769    6.362040    6.362040
         H    6.362040    8.755769    6.362040
BEGIN_BLOCK_DATAGRID_3D
units: coords = b, function = 1/hbar/H*b^-2
BEGIN_DATAGRID_3D_function
      9      9      9
0.0 0.0 0.0
   15.117809    0.000000    0.000000
    0.000000   15.117809    0.000000
    0.000000    0.000000   15.117809
        0.000000000000000
        0.000000000000000
        0.000000000000000
        0.000000000000000
        0.000000000000000
        0.000000000000000
        0.000000000000000
        0.000000000000000
        0.000000000000000
        0.000000000000000
        0.000000000000000
        0.000000000000000
        0.000000000000000
        0.000000000000000
        0.000000000000000
        0.000000000000000
        0.000000000000000
        0.000000000000000
        0.000000000000000
        0.000000000000000
        0.000000000000000
        0.000000000000000
        0.000000000000000
        0.000000000000000
        0.000000000000000
        0.000000000000000
        0.000000000000000
        0.000000000000000
        0.000000000000000
        0.000000000000000
        0.000000000000000
       -0.000000000003106
        0.000000000001566
        0.000000000000000
        0.000000000000000
        0.000000000000000
        0.000000000000000
        0.000000000000000
        0.000000000000000
       -0.000000000001074
       -0.000000000001867
        0.000000000001130
        0.000000000000000
        0.000000000000000
        0.000000000000000
        0.000000000000000
        0.000000000000000
        0.000000000000000
       -0.000000000002899
        0.000000000003161
        0.000000000000000
        0.000000000000000
        0.000000000000000
        0.000000000000000
        0.000000000000000
        0.000000000000000
        0.000000000000000
        0.000000000000000
        0.000000000000000
        0.000000000000000
        0.000000000000000
        0.000000000000000
        0.000000000000000
        0.000000000000000
        0.000000000000000
        0.000000000000000
        0.000000000000000
        0.000000000000000
        0.000000000000000
        0.000000000000000
        0.000000000000000
        0.000000000000000
        0.000000000000000
        0.000000000000000
        0.000000000000000
        0.000000000000000
        0.000000000000000
        0.000000000000000
        0.000000000000000
        0.000000000000000
        0.000000000000000
        0.000000000000000
        0.000000000000000
        0.000000000000000
        0.000000000000000
        0.000000000000000
        0.000000000000000
        0.000000000000000
        0.000000000000000
        0.000000000000000
        0.000000000000000
        0.000000000000000
        0.000000000000000
        0.000000000000000
       -0.000000000002074
        0.000000000002966
        0.000000000000000
        0.000000000000000
        0.000000000000000
        0.000000000000000
        0.000000000000000
        0.000000000000000
       -0.000000000007540
        0.000000000003851
       -0.000000000002851
        0.000000000005275
        0.000000000000000
        0.000000000000000
        0.000000000000000
        0.000000000000000
       -0.000000000004791
       -0.000000000009996
       -0.000000000032398
        0.000000000019578
        0.000000000016099
       -0.000000000000793
        0.000000000000000
        0.000000000000000
        0.000000000000990
       -0.000000000002758
       -0.000000000063557
        0.000000000018801
        0.000000000064689
        0.000000000007147
       -0.000000000000105
        0.000000000000000
        0.000000000000000
        0.000000000002121
       -0.000000000019370
       -0.000000000016042
        0.000000000033516
        0.000000000013726
        0.000000000002438
        0.000000000000000
        0.000000000000000
        0.000000000000000
        0.000000000000000
       -0.000000000002501
       -0.000000000000426
        0.000000000000541
        0.000000000005187
        0.000000000000000
        0.000000000000000
        0.000000000000000
        0.000000000000000
        0.000000000000000
        0.000000000000000
       -0.000000000001638
        0.000000000002958
        0.000000000000000
        0.000000000000000
        0.000000000000000
        0.000000000000000
        0.000000000000000
        0.000000000000000
        0.000000000000000
        0.000000000000000
        0.000000000000000
        0.000000000000000
        0.000000000000000
        0.000000000000000
        0.000000000000000
        0.000000000000000
        0.000000000000000
        0.000000000000000
        0.000000000000000
        0.000000000000000
        0.000000000000000
        0.000000000000000
        0.000000000000000
        0.000000000000000
        0.000000000000000
        0.000000000000000
        0.000000000000000
       -0.000000000005407
       -0.000000000000604
        0.000000000001021
        0.000000000003064
        0.000000000000000
        0.000000000000000
        0.000000000000000
        0.000000000000000
       -0.000000000011447
        0.000000000002956
        0.000000000007174
       -0.000000000012488
       -0.000000000005483
        0.000000000001609
        0.000000000000000
        0.000000000000000
        0.000000000000286
       -0.000000000020151
        0.000000000264934
        0.000000000494495
       -0.000000000254958
       -0.000000000305723
        0.000000000020445
        0.000000000000000
        0.000000000000000
       -0.000000000006208
        0.000000000104862
        0.000000001200405
       -0.000000000341348
       -0.000000001234612
       -0.000000000113473
        0.000000000009940
        0.000000000000000
        0.000000000000000
       -0.000000000022607
        0.000000000329660
        0.000000000424321
       -0.000000000528172
       -0.000000000277551
        0.000000000023336
       -0.000000000002221
        0.000000000000000
        0.000000000000000
       -0.000000000000148
       -0.000000000000514
        0.000000000036683
       -0.000000000015761
        0.000000000000191
        0.000000000004968
        0.000000000000000
        0.000000000000000
        0.000000000000000
        0.000000000000000
       -0.000000000001607
       -0.000000000003218
        0.000000000004322
        0.000000000003468
        0.000000000000000
        0.000000000000000
        0.000000000000000
        0.000000000000000
        0.000000000000000
        0.000000000000000
        0.000000000000000
        0.000000000000000
        0.000000000000000
        0.000000000000000
        0.000000000000000
        0.000000000000000
        0.000000000000000
        0.000000000000000
        0.000000000000000
        0.000000000000000
       -0.000000000000947
        0.000000000000053
        0.000000000000000
        0.000000000000000
        0.000000000000000
        0.000000000000000
        0.000000000000000
       -0.000000000003535
       -0.000000000005498
        0.000000000004273
       -0.000000000002412
        0.000000000003850
       -0.000000000000039
        0.000000000000000
        0.000000000000000
       -0.000000000001758
       -0.000000000004557
        0.000000000053294
       -0.000000000022602
       -0.000000000075125
       -0.000000000012253
        0.000000000001224
        0.000000000000000
        0.000000000000000
       -0.000000000018552
        0.000000000239457
        0.000000000833098
       -0.000000001729648
       -0.000000002993447
       -0.000000000153040
        0.000000000014831
        0.000000000000125
        0.000000000000703
       -0.000000000062329
        0.000000001046317
        0.000000005100706
       -0.000000001634450
       -0.000000005742444
       -0.000000001025343
        0.000000000064197
       -0.000000000000047
       -0.000000000000265
       -0.000000000011091
        0.000000000186073
        0.000000002558300
        0.000000001091023
       -0.000000000936263
       -0.000000000236960
        0.000000000019113
        0.000000000000000
        0.000000000000000
       -0.000000000000888
        0.000000000020925
        0.000000000107999
        0.000000000044441
       -0.000000000050657
        0.000000000004851
        0.000000000000232
        0.000000000000000
        0.000000000000000
       -0.000000000000004
       -0.000000000003520
        0.000000000006128
       -0.000000000002526
        0.000000000006026
        0.000000000002005
        0.000000000000000
        0.000000000000000
        0.000000000000000
        0.000000000000000
        0.000000000000000
       -0.000000000000192
        0.000000000001605
        0.000000000000000
        0.000000000000000
        0.000000000000000
        0.000000000000000
        0.000000000000000
        0.000000000000000
        0.000000000000000
        0.000000000000192
       -0.000000000003777
        0.000000000000053
        0.000000000000000
        0.000000000000000
        0.000000000000000
        0.000000000000000
        0.000000000000004
       -0.000000000004610
        0.000000000000122
       -0.000000000002894
        0.000000000005451
       -0.000000000004253
       -0.000000000000039
        0.000000000000000
        0.000000000000000
       -0.000000000001979
        0.000000000007363
       -0.000000000032852
       -0.000000000085994
       -0.000000000033704
        0.000000000015874
       -0.000000000001631
        0.000000000000000
        0.000000000000265
       -0.000000000043196
        0.000000000538751
       -0.000000001288706
       -0.000000003547009
       -0.000000001763632
        0.000000000538565
       -0.000000000037908
        0.000000000000125
       -0.000000000000000
       -0.000000000000000
       -0.000000000000000
        0.000000000000000
       -0.000000000000000
       -0.000000000000000
        0.000000000000000
        0.000000000000000
       -0.000000000000000
       -0.000000000000265
        0.000000000043196
       -0.000000000538751
        0.000000001288706
        0.000000003547009
        0.000000001763632
       -0.000000000538565
        0.000000000037908
       -0.000000000000125
        0.000000000000000
        0.000000000001979
       -0.000000000007363
        0.000000000032852
        0.000000000085994
        0.000000000033704
       -0.000000000015874
        0.000000000001631
        0.000000000000000
        0.000000000000000
       -0.000000000000004
        0.000000000004610
       -0.000000000000122
        0.000000000002894
       -0.000000000005451
        0.000000000004253
        0.000000000000039
        0.000000000000000
        0.000000000000000
        0.000000000000000
        0.000000000000000
       -0.000000000000192
        0.000000000003777
       -0.000000000000053
        0.000000000000000
        0.000000000000000
        0.000000000000000
        0.000000000000000
        0.000000000000000
        0.000000000000000
        0.000000000000192
       -0.000000000001605
        0.000000000000000
        0.000000000000000
        0.000000000000000
        0.000000000000000
        0.000000000000000
        0.000000000000004
        0.000000000003520
       -0.000000000006128
        0.000000000002526
       -0.000000000006026
       -0.000000000002005
        0.000000000000000
        0.000000000000000
        0.000000000000000
        0.000000000000888
       -0.000000000020925
       -0.000000000107999
       -0.000000000044441
        0.000000000050657
       -0.000000000004851
       -0.000000000000232
        0.000000000000000
        0.000000000000265
        0.000000000011091
       -0.000000000186073
       -0.000000002558300
       -0.000000001091023
        0.000000000936263
        0.000000000236960
       -0.000000000019113
        0.000000000000000
       -0.000000000000703
        0.000000000062329
       -0.000000001046317
       -0.000000005100706
        0.000000001634450
        0.000000005742443
        0.000000001025343
       -0.000000000064197
        0.000000000000047
        0.000000000000000
        0.000000000018552
       -0.000000000239457
       -0.000000000833098
        0.000000001729648
        0.000000002993447
        0.000000000153040
       -0.000000000014831
       -0.000000000000125
        0.000000000000000
        0.000000000001758
        0.000000000004557
       -0.000000000053294
        0.000000000022602
        0.000000000075125
        0.000000000012253
       -0.000000000001224
        0.000000000000000
        0.000000000000000
        0.000000000000000
        0.000000000003535
        0.000000000005498
       -0.000000000004273
        0.000000000002412
       -0.000000000003850
        0.000000000000039
        0.000000000000000
        0.000000000000000
        0.000000000000000
        0.000000000000000
        0.000000000000000
        0.000000000000947
       -0.000000000000053
        0.000000000000000
        0.000000000000000
        0.000000000000000
        0.000000000000000
        0.000000000000000
        0.000000000000000
        0.000000000000000
        0.000000000000000
        0.000000000000000
        0.000000000000000
        0.000000000000000
        0.000000000000000
        0.000000000000000
        0.000000000000000
        0.000000000001607
        0.000000000003218
       -0.000000000004322
       -0.000000000003468
        0.000000000000000
        0.000000000000000
        0.000000000000000
        0.000000000000000
        0.000000000000148
        0.000000000000514
       -0.000000000036683
        0.000000000015761
       -0.000000000000191
       -0.000000000004968
        0.000000000000000
        0.000000000000000
        0.000000000000000
        0.000000000022607
       -0.000000000329660
       -0.000000000424321
        0.000000000528172
        0.000000000277551
       -0.000000000023336
        0.000000000002221
        0.000000000000000
        0.000000000000000
        0.000000000006208
       -0.000000000104862
       -0.000000001200405
        0.000000000341348
        0.000000001234612
        0.000000000113473
       -0.000000000009940
        0.000000000000000
        0.000000000000000
       -0.000000000000286
        0.000000000020151
       -0.000000000264934
       -0.000000000494495
        0.000000000254958
        0.000000000305723
       -0.000000000020445
        0.000000000000000
        0.000000000000000
        0.000000000000000
        0.000000000011447
       -0.000000000002956
       -0.000000000007174
        0.000000000012488
        0.000000000005483
       -0.000000000001609
        0.000000000000000
        0.000000000000000
        0.000000000000000
        0.000000000000000
        0.000000000005407
        0.000000000000604
       -0.000000000001021
       -0.000000000003064
        0.000000000000000
        0.000000000000000
        0.000000000000000
        0.000000000000000
        0.000000000000000
        0.000000000000000
        0.000000000000000
        0.000000000000000
        0.000000000000000
        0.000000000000000
        0.000000000000000
        0.000000000000000
        0.000000000000000
        0.000000000000000
        0.000000000000000
        0.000000000000000
        0.000000000000000
        0.000000000000000
        0.000000000000000
        0.000000000000000
        0.000000000000000
        0.000000000000000
        0.000000000000000
        0.000000000001638
       -0.000000000002958
        0.000000000000000
        0.000000000000000
        0.000000000000000
        0.000000000000000
        0.000000000000000
        0.000000000000000
        0.000000000002501
        0.000000000000426
       -0.000000000000541
       -0.000000000005187
        0.000000000000000
        0.000000000000000
        0.000000000000000
        0.000000000000000
       -0.000000000002121
        0.000000000019370
        0.000000000016042
       -0.000000000033516
       -0.000000000013726
       -0.000000000002438
        0.000000000000000
        0.000000000000000
        0.000000000000000
       -0.000000000000990
        0.000000000002758
        0.000000000063557
       -0.000000000018801
       -0.000000000064689
       -0.000000000007147
        0.000000000000105
        0.000000000000000
        0.000000000000000
        0.000000000000000
        0.000000000004791
        0.000000000009996
        0.000000000032398
       -0.000000000019578
       -0.000000000016099
        0.000000000000793
        0.000000000000000
        0.000000000000000
        0.000000000000000
        0.000000000000000
        0.000000000007540
       -0.000000000003851
        0.000000000002851
       -0.000000000005275
        0.000000000000000
        0.000000000000000
        0.000000000000000
        0.000000000000000
        0.000000000000000
        0.000000000000000
        0.000000000002074
       -0.000000000002966
        0.000000000000000
        0.000000000000000
        0.000000000000000
        0.000000000000000
        0.000000000000000
        0.000000000000000
        0.000000000000000
        0.000000000000000
        0.000000000000000
        0.000000000000000
        0.000000000000000
        0.000000000000000
        0.000000000000000
        0.000000000000000
        0.000000000000000
        0.000000000000000
        0.000000000000000
        0.000000000000000
        0.000000000000000
        0.000000000000000
        0.000000000000000
        0.000000000000000
        0.000000000000000
        0.000000000000000
        0.000000000000000
        0.000000000000000
        0.000000000000000
        0.000000000000000
        0.000000000000000
        0.000000000000000
        0.000000000000000
        0.000000000000000
        0.000000000000000
        0.000000000000000
        0.000000000000000
        0.000000000000000
        0.000000000000000
        0.000000000000000
        0.000000000000000
        0.000000000000000
        0.000000000000000
        0.000000000000000
        0.000000000002899
       -0.000000000003161
        0.000000000000000
        0.000000000000000
        0.000000000000000
        0.000000000000000
        0.000000000000000
        0.000000000000000
        0.000000000000000
        0.000000000001074
        0.000000000001867
       -0.000000000001130
        0.000000000000000
        0.000000000000000
        0.000000000000000
        0.000000000000000
        0.000000000000000
        0.000000000000000
        0.000000000000000
        0.000000000003106
       -0.000000000001566
        0.000000000000000
        0.000000000000000
        0.000000000000000
        0.000000000000000
        0.000000000000000
        0.000000000000000
        0.000000000000000
        0.000000000000000
        0.000000000000000
        0.000000000000000
        0.000000000000000
        0.000000000000000
        0.000000000000000
        0.000000000000000
        0.000000000000000
        0.000000000000000
        0.000000000000000
        0.000000000000000
        0.000000000000000
        0.000000000000000
        0.000000000000000
        0.000000000000000
        0.000000000000000
        0.000000000000000
        0.000000000000000
        0.000000000000000
        0.000000000000000
        0.000000000000000
        0.000000000000000
        0.000000000000000
END_DATAGRID_3D
END_BLOCK_DATAGRID_3D
