ATOMS
         C    7.558905    7.558905    7.558905
         H    8.755769    8.755769    8.755769
         H    6.362040    6.362040    8.755769
         H    8.755769    6.362040    6.362040
         H    6.362040    8.755769    6.362040
BEGIN_BLOCK_DATAGRID_3D
units: coords = b, function = sqrt(b^-3)
BEGIN_DATAGRID_3D_function
      9      9      9
0.0 0.0 0.0
   15.117809    0.000000    0.000000
    0.000000   15.117809    0.000000
    0.000000    0.000000   15.117809
        0.000000000000000
        0.000000000000000
        0.000000000000000
        0.000000000000000
        0.000000000000000
        0.000000000000000
        0.000000000000000
        0.000000000000000
        0.000000000000000
        0.000000000000000
        0.000000000000000
        0.000000000000000
        0.000000000000000
        0.000000000000000
        0.000000000000000
        0.000000000000000
        0.000000000000000
        0.000000000000000
        0.000000000000000
        0.000000000000000
        0.000000000000000
        0.000000000000000
        0.000000000000000
        0.000000000000000
        0.000000000000000
        0.000000000000000
        0.000000000000000
        0.000000000000000
        0.000000000000000
        0.000000000000000
        0.000000000000000
       -0.000146530170680
        0.000055422473470
        0.000000000000000
        0.000000000000000
        0.000000000000000
        0.000000000000000
        0.000000000000000
        0.000000000000000
       -0.000324412641168
       -0.000135712197402
        0.000142334179606
        0.000000000000000
        0.000000000000000
        0.000000000000000
        0.000000000000000
        0.000000000000000
        0.000000000000000
       -0.000210675944064
       -0.000035540694795
        0.000000000000000
        0.000000000000000
        0.000000000000000
        0.000000000000000
        0.000000000000000
        0.000000000000000
        0.000000000000000
        0.000000000000000
        0.000000000000000
        0.000000000000000
        0.000000000000000
        0.000000000000000
        0.000000000000000
        0.000000000000000
        0.000000000000000
        0.000000000000000
        0.000000000000000
        0.000000000000000
        0.000000000000000
        0.000000000000000
        0.000000000000000
        0.000000000000000
        0.000000000000000
        0.000000000000000
        0.000000000000000
        0.000000000000000
        0.000000000000000
        0.000000000000000
        0.000000000000000
        0.000000000000000
        0.000000000000000
        0.000000000000000
        0.000000000000000
        0.000000000000000
        0.000000000000000
        0.000000000000000
        0.000000000000000
        0.000000000000000
        0.000000000000000
        0.000000000000000
        0.000000000000000
        0.000000000000000
        0.000000000000000
        0.000000000000000
       -0.000316522442558
       -0.000108024647375
        0.000000000000000
        0.000000000000000
        0.000000000000000
        0.000000000000000
        0.000000000000000
        0.000000000000000
       -0.001146918140930
       -0.000957488780581
       -0.000013951913344
        0.000316872604297
        0.000000000000000
        0.000000000000000
        0.000000000000000
        0.000000000000000
       -0.001514361036524
       -0.002455503668428
       -0.001368785760905
        0.000650702258355
        0.001042853805099
        0.000471094304097
        0.000000000000000
        0.000000000000000
       -0.000740197375787
       -0.002112650556141
       -0.002777136812047
       -0.000787530994924
        0.001623035038494
        0.001627577007695
        0.000620429257969
        0.000000000000000
        0.000000000000000
       -0.000583280302779
       -0.001469484357076
       -0.001589285408332
        0.000214762020591
        0.001692380228758
        0.001227377283095
        0.000000000000000
        0.000000000000000
        0.000000000000000
        0.000000000000000
       -0.000514778919989
       -0.000412599052177
        0.000472544332371
        0.000859995551250
        0.000000000000000
        0.000000000000000
        0.000000000000000
        0.000000000000000
        0.000000000000000
        0.000000000000000
       -0.000004106365784
        0.000196826043378
        0.000000000000000
        0.000000000000000
        0.000000000000000
        0.000000000000000
        0.000000000000000
        0.000000000000000
        0.000000000000000
        0.000000000000000
        0.000000000000000
        0.000000000000000
        0.000000000000000
        0.000000000000000
        0.000000000000000
        0.000000000000000
        0.000000000000000
        0.000000000000000
        0.000000000000000
        0.000000000000000
        0.000000000000000
        0.000000000000000
        0.000000000000000
        0.000000000000000
        0.000000000000000
        0.000000000000000
        0.000000000000000
       -0.001523529034930
       -0.001496446825830
       -0.000414358938550
        0.000148130686906
        0.000000000000000
        0.000000000000000
        0.000000000000000
        0.000000000000000
       -0.003082965993834
       -0.005828369455572
       -0.004633104577365
        0.000073501442257
        0.001397002918910
        0.000672403734139
        0.000000000000000
        0.000000000000000
       -0.002198134025260
       -0.007432110343537
       -0.012721214747916
       -0.007875038234317
        0.004579534934516
        0.004886435130550
        0.001886477009225
        0.000000000000000
        0.000000000000000
       -0.003091189038056
       -0.009729837335741
       -0.016045583999053
       -0.003606235426022
        0.011506343344767
        0.008215245302807
        0.002763091348108
        0.000000000000000
        0.000000000000000
       -0.002196478547987
       -0.006241602152066
       -0.008209203806242
        0.003336267552700
        0.010147785249257
        0.006563497477470
        0.002020832900405
        0.000000000000000
        0.000000000000000
       -0.000821157362509
       -0.002005387036825
       -0.001428343077699
        0.003119089313467
        0.004960042736119
        0.002806438895093
        0.000000000000000
        0.000000000000000
        0.000000000000000
        0.000000000000000
       -0.000296824202414
        0.000104569161174
        0.001168641714383
        0.001346398379859
        0.000000000000000
        0.000000000000000
        0.000000000000000
        0.000000000000000
        0.000000000000000
        0.000000000000000
        0.000000000000000
        0.000000000000000
        0.000000000000000
        0.000000000000000
        0.000000000000000
        0.000000000000000
        0.000000000000000
        0.000000000000000
        0.000000000000000
        0.000000000000000
       -0.000615437334799
       -0.000313882127501
        0.000000000000000
        0.000000000000000
        0.000000000000000
        0.000000000000000
        0.000000000000000
       -0.002341548075563
       -0.004405074694536
       -0.003981776449323
       -0.001194749747803
        0.000302318662230
        0.000284705340723
        0.000000000000000
        0.000000000000000
       -0.002648711207997
       -0.009398658971674
       -0.017865762744745
       -0.015312846633439
       -0.000026739951338
        0.003337385629842
        0.001546348198431
        0.000000000000000
        0.000000000000000
       -0.005995069277521
       -0.022061275119221
       -0.047052909285251
       -0.034549485210528
        0.019304941636875
        0.014284889277740
        0.004538952268621
        0.000833508887246
       -0.001175773935302
       -0.007521258476798
       -0.029549180358528
       -0.066487108557072
       -0.009566941027361
        0.056502734666722
        0.027177413736325
        0.007128322919235
        0.001130262432291
       -0.000881200064938
       -0.004939913408125
       -0.016572153579180
       -0.027711593245041
        0.024567154781130
        0.042833689504165
        0.020986803946943
        0.005799839223554
        0.000000000000000
        0.000000000000000
       -0.001757136325794
       -0.004240780258991
       -0.002259738265985
        0.012942650092227
        0.016792076266525
        0.009103248312913
        0.002602722730112
        0.000000000000000
        0.000000000000000
       -0.000342522790672
       -0.000512972983853
        0.000794308497699
        0.003589600043454
        0.004210285784643
        0.002295671377174
        0.000000000000000
        0.000000000000000
        0.000000000000000
        0.000000000000000
        0.000000000000000
        0.000266316491992
        0.000570088316477
        0.000000000000000
        0.000000000000000
        0.000000000000000
        0.000000000000000
        0.000000000000000
        0.000000000000000
        0.000000000000000
       -0.001011462432883
       -0.001066623901320
       -0.000419540704503
        0.000000000000000
        0.000000000000000
        0.000000000000000
        0.000000000000000
       -0.001259728474986
       -0.004068161515605
       -0.007117203889513
       -0.006189525880120
       -0.001952829635365
        0.000256639155137
        0.000318874197011
        0.000000000000000
        0.000000000000000
       -0.004507746827280
       -0.015979779112891
       -0.033502873171277
       -0.028342537971784
       -0.002169269010251
        0.004080029389927
        0.001931108187027
        0.000000000000000
       -0.001393918027817
       -0.009248351587150
       -0.039568673561629
       -0.105651404093176
       -0.075187457491948
        0.027197428075067
        0.020939600925876
        0.006165442650191
        0.001037294775212
       -0.001825868998283
       -0.010595198267331
       -0.048515182648174
       -0.128700491219315
       -0.000001511318662
        0.128694689090458
        0.048512468739936
        0.010594017284539
        0.001825612022179
       -0.001055688266811
       -0.006277507052214
       -0.021492196178944
       -0.028636714295186
        0.075185864384436
        0.107084494451006
        0.040117472263777
        0.009358731061955
        0.001411973674304
        0.000000000000000
       -0.002016522263958
       -0.004388613877244
        0.001617795114157
        0.028342174322208
        0.034052802388274
        0.016286910664326
        0.004592476301151
        0.000000000000000
        0.000000000000000
       -0.000350681810982
       -0.000341881898085
        0.001841461184361
        0.006189469024459
        0.007228303754210
        0.004153066057938
        0.001291367404246
        0.000000000000000
        0.000000000000000
        0.000000000000000
        0.000000000000000
        0.000401302035739
        0.001066615741337
        0.001029676562930
        0.000000000000000
        0.000000000000000
        0.000000000000000
        0.000000000000000
        0.000000000000000
        0.000000000000000
       -0.000906309270978
       -0.000815557915687
        0.000000000000000
        0.000000000000000
        0.000000000000000
        0.000000000000000
        0.000000000000000
       -0.001166077732501
       -0.003654831444112
       -0.006181728006664
       -0.005088167888425
       -0.001592105512065
        0.000086628495887
        0.000000000000000
        0.000000000000000
        0.000000000000000
       -0.003981426854033
       -0.013985822416029
       -0.028498656044057
       -0.020358786067616
       -0.002356920697643
        0.002575245712889
        0.001256691911411
        0.000000000000000
       -0.001207533806218
       -0.007686941641127
       -0.032255329699042
       -0.085368752365469
       -0.043902405507731
        0.013903876495790
        0.013626626780064
        0.004464907160449
        0.000000000000000
       -0.001273832359326
       -0.008004600162565
       -0.031511689382045
       -0.067801009831290
        0.009565347919849
        0.077779187859351
        0.033879659453328
        0.008395850792911
        0.001319006017224
        0.000000000000000
       -0.004270750586151
       -0.012554550609376
       -0.009687465569011
        0.053882728681666
        0.093770298233919
        0.034539597145683
        0.008086516705156
        0.001254937410776
        0.000000000000000
       -0.001211102525071
       -0.002280704292853
        0.003429827477154
        0.022728471056604
        0.030783710746212
        0.014887932046318
        0.004191611718769
        0.000000000000000
        0.000000000000000
        0.000000000000000
       -0.000040922480562
        0.001786743892882
        0.005480258007406
        0.006581911088331
        0.003865168032492
        0.001223736987810
        0.000000000000000
        0.000000000000000
        0.000000000000000
        0.000000000000000
        0.000000000000000
        0.000860898359871
        0.000953850325829
        0.000000000000000
        0.000000000000000
        0.000000000000000
        0.000000000000000
        0.000000000000000
        0.000000000000000
        0.000000000000000
        0.000000000000000
        0.000000000000000
        0.000000000000000
        0.000000000000000
        0.000000000000000
        0.000000000000000
        0.000000000000000
       -0.001703411778971
       -0.002938063332053
       -0.002314929252049
       -0.000731323327667
        0.000000000000000
        0.000000000000000
        0.000000000000000
        0.000000000000000
       -0.001841054774165
       -0.006177854930152
       -0.010721582984302
       -0.007266016853498
       -0.000994734495911
        0.000910985014425
        0.000000000000000
        0.000000000000000
        0.000000000000000
       -0.003542084631840
       -0.011985000522954
       -0.022549190503800
       -0.010752403528089
        0.004287370319625
        0.005114996548332
        0.001838581741118
        0.000000000000000
        0.000000000000000
       -0.003433080053181
       -0.010638555654394
       -0.015839494058067
        0.003605871776446
        0.020377190033255
        0.012151694751446
        0.003760493140069
        0.000000000000000
        0.000000000000000
       -0.001661679707808
       -0.004247252920990
       -0.001714720519674
        0.015290662657482
        0.026177435860357
        0.013338882545610
        0.003851482907974
        0.000000000000000
        0.000000000000000
        0.000000000000000
       -0.000634722081885
        0.001862818862986
        0.008779854320517
        0.012075861186199
        0.006785637174651
        0.001989532347958
        0.000000000000000
        0.000000000000000
        0.000000000000000
        0.000000000000000
        0.000908420000614
        0.002642694869151
        0.003247720330311
        0.001851964725842
        0.000000000000000
        0.000000000000000
        0.000000000000000
        0.000000000000000
        0.000000000000000
        0.000000000000000
        0.000000000000000
        0.000000000000000
        0.000000000000000
        0.000000000000000
        0.000000000000000
        0.000000000000000
        0.000000000000000
        0.000000000000000
        0.000000000000000
        0.000000000000000
        0.000000000000000
        0.000000000000000
        0.000000000000000
        0.000000000000000
        0.000000000000000
        0.000000000000000
        0.000000000000000
       -0.000773284235632
       -0.000624253914739
        0.000000000000000
        0.000000000000000
        0.000000000000000
        0.000000000000000
        0.000000000000000
        0.000000000000000
       -0.001485457061396
       -0.002420895118702
       -0.001618831870037
       -0.000244920499058
        0.000000000000000
        0.000000000000000
        0.000000000000000
        0.000000000000000
       -0.000925320220394
       -0.002698320070889
       -0.003798134100634
       -0.001713329865562
        0.000925800043820
        0.001154922589966
        0.000000000000000
        0.000000000000000
        0.000000000000000
       -0.000870212910181
       -0.002297392857549
       -0.002498605893104
        0.000787474139263
        0.003652439080351
        0.002782128205380
        0.000989812343288
        0.000000000000000
        0.000000000000000
        0.000000000000000
       -0.000868109519601
       -0.000162827133226
        0.002867267318989
        0.004736459082172
        0.003124632889623
        0.001037348024435
        0.000000000000000
        0.000000000000000
        0.000000000000000
        0.000000000000000
        0.000531809106614
        0.002103736823901
        0.002847313305105
        0.001683222808451
        0.000000000000000
        0.000000000000000
        0.000000000000000
        0.000000000000000
        0.000000000000000
        0.000000000000000
        0.000743939907058
        0.000885387080063
        0.000000000000000
        0.000000000000000
        0.000000000000000
        0.000000000000000
        0.000000000000000
        0.000000000000000
        0.000000000000000
        0.000000000000000
        0.000000000000000
        0.000000000000000
        0.000000000000000
        0.000000000000000
        0.000000000000000
        0.000000000000000
        0.000000000000000
        0.000000000000000
        0.000000000000000
        0.000000000000000
        0.000000000000000
        0.000000000000000
        0.000000000000000
        0.000000000000000
        0.000000000000000
        0.000000000000000
        0.000000000000000
        0.000000000000000
        0.000000000000000
        0.000000000000000
        0.000000000000000
        0.000000000000000
        0.000000000000000
        0.000000000000000
        0.000000000000000
        0.000000000000000
        0.000000000000000
        0.000000000000000
        0.000000000000000
        0.000000000000000
        0.000000000000000
        0.000000000000000
        0.000000000000000
        0.000000000000000
       -0.000429316834923
       -0.000209928904415
        0.000000000000000
        0.000000000000000
        0.000000000000000
        0.000000000000000
        0.000000000000000
        0.000000000000000
        0.000000000000000
       -0.000285747755977
        0.000135704037420
        0.000467801678821
        0.000000000000000
        0.000000000000000
        0.000000000000000
        0.000000000000000
        0.000000000000000
        0.000000000000000
        0.000000000000000
        0.000391991195752
        0.000584545724858
        0.000000000000000
        0.000000000000000
        0.000000000000000
        0.000000000000000
        0.000000000000000
        0.000000000000000
        0.000000000000000
        0.000000000000000
        0.000000000000000
        0.000000000000000
        0.000000000000000
        0.000000000000000
        0.000000000000000
        0.000000000000000
        0.000000000000000
        0.000000000000000
        0.000000000000000
        0.000000000000000
        0.000000000000000
        0.000000000000000
        0.000000000000000
        0.000000000000000
        0.000000000000000
        0.000000000000000
        0.000000000000000
        0.000000000000000
        0.000000000000000
        0.000000000000000
        0.000000000000000
        0.000000000000000
END_DATAGRID_3D
END_BLOCK_DATAGRID_3D
