ATOMS
         C    7.558905    7.558905    7.558905
         H    8.755769    8.755769    8.755769
         H    6.362040    6.362040    8.755769
         H    8.755769    6.362040    6.362040
         H    6.362040    8.755769    6.362040
BEGIN_BLOCK_DATAGRID_3D
units: coords = b, function = 1/hbar/H*b^-2
BEGIN_DATAGRID_3D_function
      9      9      9
0.0 0.0 0.0
   15.117809    0.000000    0.000000
    0.000000   15.117809    0.000000
    0.000000    0.000000   15.117809
        0.000000000000000
        0.000000000000000
        0.000000000000000
        0.000000000000000
        0.000000000000000
        0.000000000000000
        0.000000000000000
        0.000000000000000
        0.000000000000000
        0.000000000000000
        0.000000000000000
        0.000000000000000
        0.000000000000000
        0.000000000000000
        0.000000000000000
        0.000000000000000
        0.000000000000000
        0.000000000000000
        0.000000000000000
        0.000000000000000
        0.000000000000000
        0.000000000000000
        0.000000000000000
        0.000000000000000
        0.000000000000000
        0.000000000000000
        0.000000000000000
        0.000000000000000
        0.000000000000000
        0.000000000000000
        0.000000000000000
       -0.000000001186750
        0.000000000783950
        0.000000000000000
        0.000000000000000
        0.000000000000000
        0.000000000000000
        0.000000000000000
        0.000000000000000
       -0.000000000702710
       -0.000000000000549
        0.000000000698819
        0.000000000000000
        0.000000000000000
        0.000000000000000
        0.000000000000000
        0.000000000000000
        0.000000000000000
       -0.000000000785845
        0.000000001181956
        0.000000000000000
        0.000000000000000
        0.000000000000000
        0.000000000000000
        0.000000000000000
        0.000000000000000
        0.000000000000000
        0.000000000000000
        0.000000000000000
        0.000000000000000
        0.000000000000000
        0.000000000000000
        0.000000000000000
        0.000000000000000
        0.000000000000000
        0.000000000000000
        0.000000000000000
        0.000000000000000
        0.000000000000000
        0.000000000000000
        0.000000000000000
        0.000000000000000
        0.000000000000000
        0.000000000000000
        0.000000000000000
        0.000000000000000
        0.000000000000000
        0.000000000000000
        0.000000000000000
        0.000000000000000
        0.000000000000000
        0.000000000000000
        0.000000000000000
        0.000000000000000
        0.000000000000000
        0.000000000000000
        0.000000000000000
        0.000000000000000
        0.000000000000000
        0.000000000000000
        0.000000000000000
        0.000000000000000
        0.000000000000000
        0.000000000000000
       -0.000000000785851
        0.000000000725946
        0.000000000000000
        0.000000000000000
        0.000000000000000
        0.000000000000000
        0.000000000000000
        0.000000000000000
       -0.000000002183194
       -0.000000000170919
       -0.000000000049110
        0.000000001529001
        0.000000000000000
        0.000000000000000
        0.000000000000000
        0.000000000000000
       -0.000000001523446
       -0.000000004663139
       -0.000000011214132
        0.000000007729116
        0.000000005106610
       -0.000000000241068
        0.000000000000000
        0.000000000000000
        0.000000000174780
       -0.000000002751296
       -0.000000020457459
       -0.000000000009967
        0.000000020507020
        0.000000002764391
       -0.000000000171694
        0.000000000000000
        0.000000000000000
        0.000000000241723
       -0.000000005081303
       -0.000000007735045
        0.000000011229776
        0.000000004672682
        0.000000001526581
        0.000000000000000
        0.000000000000000
        0.000000000000000
        0.000000000000000
       -0.000000001529346
        0.000000000057341
        0.000000000172293
        0.000000002184792
        0.000000000000000
        0.000000000000000
        0.000000000000000
        0.000000000000000
        0.000000000000000
        0.000000000000000
       -0.000000000726121
        0.000000000787933
        0.000000000000000
        0.000000000000000
        0.000000000000000
        0.000000000000000
        0.000000000000000
        0.000000000000000
        0.000000000000000
        0.000000000000000
        0.000000000000000
        0.000000000000000
        0.000000000000000
        0.000000000000000
        0.000000000000000
        0.000000000000000
        0.000000000000000
        0.000000000000000
        0.000000000000000
        0.000000000000000
        0.000000000000000
        0.000000000000000
        0.000000000000000
        0.000000000000000
        0.000000000000000
        0.000000000000000
        0.000000000000000
       -0.000000001519497
       -0.000000001137307
        0.000000000810144
        0.000000000906845
        0.000000000000000
        0.000000000000000
        0.000000000000000
        0.000000000000000
       -0.000000003029349
        0.000000000739262
        0.000000007979249
       -0.000000009109986
       -0.000000003715557
        0.000000000570059
        0.000000000000000
        0.000000000000000
        0.000000000006776
       -0.000000005718847
        0.000000113589070
        0.000000196464417
       -0.000000158036784
       -0.000000115669243
        0.000000006340845
        0.000000000000000
        0.000000000000000
       -0.000000003936117
        0.000000057510812
        0.000000462657971
       -0.000000000076958
       -0.000000463952813
       -0.000000057828391
        0.000000003970801
        0.000000000000000
        0.000000000000000
       -0.000000006299961
        0.000000115172554
        0.000000158972307
       -0.000000196528336
       -0.000000114088313
        0.000000005706147
       -0.000000000001909
        0.000000000000000
        0.000000000000000
       -0.000000000567713
        0.000000003687280
        0.000000009246205
       -0.000000007931606
       -0.000000000785924
        0.000000003031548
        0.000000000000000
        0.000000000000000
        0.000000000000000
        0.000000000000000
       -0.000000000909201
       -0.000000000805841
        0.000000001140378
        0.000000001518077
        0.000000000000000
        0.000000000000000
        0.000000000000000
        0.000000000000000
        0.000000000000000
        0.000000000000000
        0.000000000000000
        0.000000000000000
        0.000000000000000
        0.000000000000000
        0.000000000000000
        0.000000000000000
        0.000000000000000
        0.000000000000000
        0.000000000000000
        0.000000000000000
       -0.000000000458564
        0.000000000009023
        0.000000000000000
        0.000000000000000
        0.000000000000000
        0.000000000000000
        0.000000000000000
       -0.000000000995684
       -0.000000002438021
        0.000000000805855
       -0.000000000756135
        0.000000001267510
        0.000000000001123
        0.000000000000000
        0.000000000000000
       -0.000000000499671
       -0.000000001327276
        0.000000026378602
       -0.000000015251407
       -0.000000051451925
       -0.000000005380223
        0.000000000462559
        0.000000000000000
        0.000000000000000
       -0.000000007274087
        0.000000103933568
        0.000000336404873
       -0.000000564928152
       -0.000001063543807
       -0.000000085273386
        0.000000005293696
       -0.000000000019546
       -0.000000000136935
       -0.000000017964477
        0.000000387551004
        0.000001365987726
        0.000000007650020
       -0.000001374081416
       -0.000000389409310
        0.000000018083070
        0.000000000139601
        0.000000000019930
       -0.000000005236506
        0.000000084906703
        0.000001058159498
        0.000000567222708
       -0.000000337468448
       -0.000000104501318
        0.000000007313868
        0.000000000000000
        0.000000000000000
       -0.000000000453804
        0.000000005395437
        0.000000051266731
        0.000000015485215
       -0.000000026467434
        0.000000001287475
        0.000000000504040
        0.000000000000000
        0.000000000000000
       -0.000000000001535
       -0.000000001264492
        0.000000000772698
       -0.000000000781895
        0.000000002435528
        0.000000000995823
        0.000000000000000
        0.000000000000000
        0.000000000000000
        0.000000000000000
        0.000000000000000
       -0.000000000008268
        0.000000000457752
        0.000000000000000
        0.000000000000000
        0.000000000000000
        0.000000000000000
        0.000000000000000
        0.000000000000000
        0.000000000000000
        0.000000000008268
       -0.000000001357643
        0.000000000009023
        0.000000000000000
        0.000000000000000
        0.000000000000000
        0.000000000000000
        0.000000000001535
       -0.000000001768723
        0.000000000835453
       -0.000000000573450
        0.000000000844426
       -0.000000001761861
        0.000000000001123
        0.000000000000000
        0.000000000000000
       -0.000000001187922
        0.000000009023294
       -0.000000018867667
       -0.000000050826059
       -0.000000019173709
        0.000000009121252
       -0.000000001189408
        0.000000000000000
       -0.000000000019930
       -0.000000011462995
        0.000000185882914
       -0.000000556504661
       -0.000001383809375
       -0.000000562030311
        0.000000186769908
       -0.000000011488865
       -0.000000000019546
       -0.000000000000000
       -0.000000000000000
        0.000000000000000
       -0.000000000000000
       -0.000000000000000
       -0.000000000000000
       -0.000000000000000
        0.000000000000000
       -0.000000000000000
        0.000000000019930
        0.000000011462995
       -0.000000185882914
        0.000000556504661
        0.000001383809375
        0.000000562030311
       -0.000000186769908
        0.000000011488865
        0.000000000019546
        0.000000000000000
        0.000000001187922
       -0.000000009023294
        0.000000018867667
        0.000000050826059
        0.000000019173709
       -0.000000009121252
        0.000000001189408
        0.000000000000000
        0.000000000000000
       -0.000000000001535
        0.000000001768723
       -0.000000000835453
        0.000000000573450
       -0.000000000844426
        0.000000001761861
       -0.000000000001123
        0.000000000000000
        0.000000000000000
        0.000000000000000
        0.000000000000000
       -0.000000000008268
        0.000000001357643
       -0.000000000009023
        0.000000000000000
        0.000000000000000
        0.000000000000000
        0.000000000000000
        0.000000000000000
        0.000000000000000
        0.000000000008268
       -0.000000000457752
        0.000000000000000
        0.000000000000000
        0.000000000000000
        0.000000000000000
        0.000000000000000
        0.000000000001535
        0.000000001264492
       -0.000000000772698
        0.000000000781895
       -0.000000002435528
       -0.000000000995823
        0.000000000000000
        0.000000000000000
        0.000000000000000
        0.000000000453804
       -0.000000005395437
       -0.000000051266731
       -0.000000015485215
        0.000000026467434
       -0.000000001287475
       -0.000000000504040
        0.000000000000000
       -0.000000000019930
        0.000000005236506
       -0.000000084906703
       -0.000001058159498
       -0.000000567222708
        0.000000337468448
        0.000000104501318
       -0.000000007313868
        0.000000000000000
        0.000000000136935
        0.000000017964477
       -0.000000387551004
       -0.000001365987726
       -0.000000007650020
        0.000001374081416
        0.000000389409310
       -0.000000018083070
       -0.000000000139601
        0.000000000000000
        0.000000007274087
       -0.000000103933568
       -0.000000336404873
        0.000000564928152
        0.000001063543807
        0.000000085273386
       -0.000000005293696
        0.000000000019546
        0.000000000000000
        0.000000000499671
        0.000000001327276
       -0.000000026378602
        0.000000015251407
        0.000000051451925
        0.000000005380223
       -0.000000000462559
        0.000000000000000
        0.000000000000000
        0.000000000000000
        0.000000000995684
        0.000000002438021
       -0.000000000805855
        0.000000000756135
       -0.000000001267510
       -0.000000000001123
        0.000000000000000
        0.000000000000000
        0.000000000000000
        0.000000000000000
        0.000000000000000
        0.000000000458564
       -0.000000000009023
        0.000000000000000
        0.000000000000000
        0.000000000000000
        0.000000000000000
        0.000000000000000
        0.000000000000000
        0.000000000000000
        0.000000000000000
        0.000000000000000
        0.000000000000000
        0.000000000000000
        0.000000000000000
        0.000000000000000
        0.000000000000000
        0.000000000909201
        0.000000000805841
       -0.000000001140378
       -0.000000001518077
        0.000000000000000
        0.000000000000000
        0.000000000000000
        0.000000000000000
        0.000000000567713
       -0.000000003687280
       -0.000000009246205
        0.000000007931606
        0.000000000785924
       -0.000000003031548
        0.000000000000000
        0.000000000000000
        0.000000000000000
        0.000000006299961
       -0.000000115172554
       -0.000000158972307
        0.000000196528336
        0.000000114088313
       -0.000000005706147
        0.000000000001909
        0.000000000000000
        0.000000000000000
        0.000000003936117
       -0.000000057510812
       -0.000000462657971
        0.000000000076958
        0.000000463952813
        0.000000057828391
       -0.000000003970801
        0.000000000000000
        0.000000000000000
       -0.000000000006776
        0.000000005718847
       -0.000000113589070
       -0.000000196464417
        0.000000158036784
        0.000000115669243
       -0.000000006340845
        0.000000000000000
        0.000000000000000
        0.000000000000000
        0.000000003029349
       -0.000000000739262
       -0.000000007979249
        0.000000009109986
        0.000000003715557
       -0.000000000570059
        0.000000000000000
        0.000000000000000
        0.000000000000000
        0.000000000000000
        0.000000001519497
        0.000000001137307
       -0.000000000810144
       -0.000000000906845
        0.000000000000000
        0.000000000000000
        0.000000000000000
        0.000000000000000
        0.000000000000000
        0.000000000000000
        0.000000000000000
        0.000000000000000
        0.000000000000000
        0.000000000000000
        0.000000000000000
        0.000000000000000
        0.000000000000000
        0.000000000000000
        0.000000000000000
        0.000000000000000
        0.000000000000000
        0.000000000000000
        0.000000000000000
        0.000000000000000
        0.000000000000000
        0.000000000000000
        0.000000000000000
        0.000000000726121
       -0.000000000787933
        0.000000000000000
        0.000000000000000
        0.000000000000000
        0.000000000000000
        0.000000000000000
        0.000000000000000
        0.000000001529346
       -0.000000000057341
       -0.000000000172293
       -0.000000002184792
        0.000000000000000
        0.000000000000000
        0.000000000000000
        0.000000000000000
       -0.000000000241723
        0.000000005081303
        0.000000007735045
       -0.000000011229776
       -0.000000004672682
       -0.000000001526581
        0.000000000000000
        0.000000000000000
        0.000000000000000
       -0.000000000174780
        0.000000002751296
        0.000000020457459
        0.000000000009967
       -0.000000020507020
       -0.000000002764391
        0.000000000171694
        0.000000000000000
        0.000000000000000
        0.000000000000000
        0.000000001523446
        0.000000004663139
        0.000000011214132
       -0.000000007729116
       -0.000000005106610
        0.000000000241068
        0.000000000000000
        0.000000000000000
        0.000000000000000
        0.000000000000000
        0.000000002183194
        0.000000000170919
        0.000000000049110
       -0.000000001529001
        0.000000000000000
        0.000000000000000
        0.000000000000000
        0.000000000000000
        0.000000000000000
        0.000000000000000
        0.000000000785851
       -0.000000000725946
        0.000000000000000
        0.000000000000000
        0.000000000000000
        0.000000000000000
        0.000000000000000
        0.000000000000000
        0.000000000000000
        0.000000000000000
        0.000000000000000
        0.000000000000000
        0.000000000000000
        0.000000000000000
        0.000000000000000
        0.000000000000000
        0.000000000000000
        0.000000000000000
        0.000000000000000
        0.000000000000000
        0.000000000000000
        0.000000000000000
        0.000000000000000
        0.000000000000000
        0.000000000000000
        0.000000000000000
        0.000000000000000
        0.000000000000000
        0.000000000000000
        0.000000000000000
        0.000000000000000
        0.000000000000000
        0.000000000000000
        0.000000000000000
        0.000000000000000
        0.000000000000000
        0.000000000000000
        0.000000000000000
        0.000000000000000
        0.000000000000000
        0.000000000000000
        0.000000000000000
        0.000000000000000
        0.000000000000000
        0.000000000785845
       -0.000000001181956
        0.000000000000000
        0.000000000000000
        0.000000000000000
        0.000000000000000
        0.000000000000000
        0.000000000000000
        0.000000000000000
        0.000000000702710
        0.000000000000549
       -0.000000000698819
        0.000000000000000
        0.000000000000000
        0.000000000000000
        0.000000000000000
        0.000000000000000
        0.000000000000000
        0.000000000000000
        0.000000001186750
       -0.000000000783950
        0.000000000000000
        0.000000000000000
        0.000000000000000
        0.000000000000000
        0.000000000000000
        0.000000000000000
        0.000000000000000
        0.000000000000000
        0.000000000000000
        0.000000000000000
        0.000000000000000
        0.000000000000000
        0.000000000000000
        0.000000000000000
        0.000000000000000
        0.000000000000000
        0.000000000000000
        0.000000000000000
        0.000000000000000
        0.000000000000000
        0.000000000000000
        0.000000000000000
        0.000000000000000
        0.000000000000000
        0.000000000000000
        0.000000000000000
        0.000000000000000
        0.000000000000000
        0.000000000000000
        0.000000000000000
END_DATAGRID_3D
END_BLOCK_DATAGRID_3D
