ATOMS
         C    7.558905    7.558905    7.558905
         H    8.755769    8.755769    8.755769
         H    6.362040    6.362040    8.755769
         H    8.755769    6.362040    6.362040
         H    6.362040    8.755769    6.362040
BEGIN_BLOCK_DATAGRID_3D
units: coords = b, function = sqrt(b^-3)
BEGIN_DATAGRID_3D_function
      9      9      9
0.0 0.0 0.0
   15.117809    0.000000    0.000000
    0.000000   15.117809    0.000000
    0.000000    0.000000   15.117809
        0.000000000000000
        0.000000000000000
        0.000000000000000
        0.000000000000000
        0.000000000000000
        0.000000000000000
        0.000000000000000
        0.000000000000000
        0.000000000000000
        0.000000000000000
        0.000000000000000
        0.000000000000000
        0.000000000000000
        0.000000000000000
        0.000000000000000
        0.000000000000000
        0.000000000000000
        0.000000000000000
        0.000000000000000
        0.000000000000000
        0.000000000000000
        0.000000000000000
        0.000000000000000
        0.000000000000000
        0.000000000000000
        0.000000000000000
        0.000000000000000
        0.000000000000000
        0.000000000000000
        0.000000000000000
        0.000000000000000
        0.000299947430277
        0.000211043842849
        0.000000000000000
        0.000000000000000
        0.000000000000000
        0.000000000000000
        0.000000000000000
        0.000000000000000
        0.000474300992929
        0.000599703037977
        0.000328766406601
        0.000000000000000
        0.000000000000000
        0.000000000000000
        0.000000000000000
        0.000000000000000
        0.000000000000000
        0.000472367779803
        0.000504597186472
        0.000000000000000
        0.000000000000000
        0.000000000000000
        0.000000000000000
        0.000000000000000
        0.000000000000000
        0.000000000000000
        0.000000000000000
        0.000000000000000
        0.000000000000000
        0.000000000000000
        0.000000000000000
        0.000000000000000
        0.000000000000000
        0.000000000000000
        0.000000000000000
        0.000000000000000
        0.000000000000000
        0.000000000000000
        0.000000000000000
        0.000000000000000
        0.000000000000000
        0.000000000000000
        0.000000000000000
        0.000000000000000
        0.000000000000000
        0.000000000000000
        0.000000000000000
        0.000000000000000
        0.000000000000000
        0.000000000000000
        0.000000000000000
        0.000000000000000
        0.000000000000000
        0.000000000000000
        0.000000000000000
        0.000000000000000
        0.000000000000000
        0.000000000000000
        0.000000000000000
        0.000000000000000
        0.000000000000000
        0.000000000000000
        0.000000000000000
        0.000009442975319
       -0.000017545277310
        0.000000000000000
        0.000000000000000
        0.000000000000000
        0.000000000000000
        0.000000000000000
        0.000000000000000
        0.000339893461963
        0.000374697841045
        0.000163930978514
        0.000018639409221
        0.000000000000000
        0.000000000000000
        0.000000000000000
        0.000000000000000
        0.000699064393645
        0.001486327909749
        0.001707428939402
        0.000954958384768
        0.000261392543408
        0.000035128126324
        0.000000000000000
        0.000000000000000
        0.000422953626703
        0.001507164859436
        0.003094490100232
        0.003480232774732
        0.001993575697213
        0.000616791775874
        0.000095509904683
        0.000000000000000
        0.000000000000000
        0.000447365835152
        0.001595502580489
        0.003169685028625
        0.003392512967467
        0.001889521866158
        0.000565565640392
        0.000000000000000
        0.000000000000000
        0.000000000000000
        0.000000000000000
        0.000838891683258
        0.001705159319820
        0.001768476438044
        0.000933859254157
        0.000000000000000
        0.000000000000000
        0.000000000000000
        0.000000000000000
        0.000000000000000
        0.000000000000000
        0.000507870651400
        0.000519418132133
        0.000000000000000
        0.000000000000000
        0.000000000000000
        0.000000000000000
        0.000000000000000
        0.000000000000000
        0.000000000000000
        0.000000000000000
        0.000000000000000
        0.000000000000000
        0.000000000000000
        0.000000000000000
        0.000000000000000
        0.000000000000000
        0.000000000000000
        0.000000000000000
        0.000000000000000
        0.000000000000000
        0.000000000000000
        0.000000000000000
        0.000000000000000
        0.000000000000000
        0.000000000000000
        0.000000000000000
        0.000000000000000
       -0.000104895238562
       -0.000268234440688
       -0.000318640230212
       -0.000186745783643
        0.000000000000000
        0.000000000000000
        0.000000000000000
        0.000000000000000
        0.000341889987521
        0.000554093805123
        0.000207063205270
       -0.000405601835297
       -0.000377558752951
       -0.000140620442902
        0.000000000000000
        0.000000000000000
        0.000556133487663
        0.002130965949242
        0.004621618370719
        0.005051865736982
        0.001593413084835
        0.000026632782585
       -0.000114366670293
        0.000000000000000
        0.000000000000000
        0.001297434660221
        0.005232341714823
        0.013148435794896
        0.015937265455746
        0.006844030381902
        0.001376511801827
        0.000113614575719
        0.000000000000000
        0.000000000000000
        0.001434649988520
        0.005838877419165
        0.014315600701805
        0.015007503054541
        0.006770976032173
        0.001695111087709
        0.000215305424891
        0.000000000000000
        0.000000000000000
        0.000769305133008
        0.002995469903299
        0.006323983515055
        0.006484436956853
        0.003310638421645
        0.000890026956873
        0.000000000000000
        0.000000000000000
        0.000000000000000
        0.000000000000000
        0.000823132753871
        0.001667382890914
        0.001717100693126
        0.000897602439691
        0.000000000000000
        0.000000000000000
        0.000000000000000
        0.000000000000000
        0.000000000000000
        0.000000000000000
        0.000000000000000
        0.000000000000000
        0.000000000000000
        0.000000000000000
        0.000000000000000
        0.000000000000000
        0.000000000000000
        0.000000000000000
        0.000000000000000
        0.000000000000000
       -0.000259653091480
       -0.000233916698109
        0.000000000000000
        0.000000000000000
        0.000000000000000
        0.000000000000000
        0.000000000000000
       -0.000267764532932
       -0.000815730108439
       -0.001409887711776
       -0.001269195403244
       -0.000640078235888
       -0.000194021059865
        0.000000000000000
        0.000000000000000
        0.000034996298645
       -0.000167037958508
       -0.001453069200746
       -0.003821783422708
       -0.003958408648260
       -0.001859202321637
       -0.000532520177522
        0.000000000000000
        0.000000000000000
        0.000753793479104
        0.002702015460297
        0.005273490542478
        0.001924261939100
       -0.005161697711106
       -0.002700244380440
       -0.000769926337781
       -0.000134857030005
        0.000292739338001
        0.002089068518794
        0.010306576463677
        0.033762755751783
        0.042283107943905
        0.010116523160783
       -0.000045702524662
       -0.000435748441503
       -0.000108678280265
        0.000326422178315
        0.002438123978031
        0.012493844090326
        0.041835663930985
        0.042194173756092
        0.013450580537104
        0.002025967459288
        0.000085017209033
        0.000000000000000
        0.000000000000000
        0.001403218098276
        0.005694242233873
        0.013881048704944
        0.014298577502444
        0.006275615436754
        0.001503840658345
        0.000171054574069
        0.000000000000000
        0.000000000000000
        0.000430141610343
        0.001526353455257
        0.002995576969172
        0.003143450818711
        0.001701801712335
        0.000485129192151
        0.000000000000000
        0.000000000000000
        0.000000000000000
        0.000000000000000
        0.000000000000000
        0.000437515719897
        0.000459917082933
        0.000000000000000
        0.000000000000000
        0.000000000000000
        0.000000000000000
        0.000000000000000
        0.000000000000000
        0.000000000000000
       -0.000337197071023
       -0.000510911179883
       -0.000348254064768
        0.000000000000000
        0.000000000000000
        0.000000000000000
        0.000000000000000
       -0.000177917428888
       -0.000778166324362
       -0.002030413050294
       -0.002964632399607
       -0.002316308414128
       -0.001052162134380
       -0.000275197940000
        0.000000000000000
        0.000000000000000
       -0.000340814350042
       -0.002070818544294
       -0.007466092124142
       -0.013574995649032
       -0.009639203901928
       -0.003658144986195
       -0.000909247300110
        0.000000000000000
        0.000042815982877
        0.000092587653698
       -0.001402266569927
       -0.012496932056313
       -0.036008429126264
       -0.025195985900349
       -0.007640670090744
       -0.001619816945102
       -0.000223909187013
        0.000243782520856
        0.001427622664612
        0.006613719699956
        0.017731492636779
        0.000041718646671
       -0.018064377354061
       -0.006879877767262
       -0.001519051337907
       -0.000263989223108
        0.000284222814564
        0.002000111588339
        0.009724221322438
        0.030997454049998
        0.036028833138127
        0.006346574458473
       -0.001020197536392
       -0.000605448034154
       -0.000130290796853
        0.000000000000000
        0.001220551383214
        0.004846265272268
        0.011858320594616
        0.013579613989149
        0.005163168359819
        0.000768611711850
       -0.000025515074426
        0.000000000000000
        0.000000000000000
        0.000395084507742
        0.001379156551079
        0.002757145080761
        0.002965351485212
        0.001575691576906
        0.000426614479936
        0.000044486042875
        0.000000000000000
        0.000000000000000
        0.000000000000000
        0.000000000000000
        0.000421278789007
        0.000510973834392
        0.000262629141108
        0.000000000000000
        0.000000000000000
        0.000000000000000
        0.000000000000000
        0.000000000000000
        0.000000000000000
       -0.000349341834403
       -0.000425716923601
        0.000000000000000
        0.000000000000000
        0.000000000000000
        0.000000000000000
        0.000000000000000
       -0.000226705467678
       -0.000958404276245
       -0.002253557823268
       -0.002934517621596
       -0.002069286819209
       -0.000822985078442
        0.000000000000000
        0.000000000000000
        0.000000000000000
       -0.000629450749280
       -0.003210726901518
       -0.009644571888637
       -0.013264105908174
       -0.008301735362523
       -0.003160590677448
       -0.000724025832272
        0.000000000000000
       -0.000047577961335
       -0.000736276670204
       -0.005838898082908
       -0.026258391095494
       -0.039494002086417
       -0.021414381919509
       -0.006936581085567
       -0.001555898744703
        0.000000000000000
        0.000034299459440
        0.000003630723242
       -0.001984621711165
       -0.015262233758098
       -0.042262703932042
       -0.028965934602658
       -0.008615165102474
       -0.001789516537753
       -0.000245521703602
        0.000000000000000
        0.000630410177517
        0.002014962268842
        0.002544011771394
       -0.004601733237112
       -0.010712424386457
       -0.004225173439899
       -0.001039929154716
       -0.000167178154723
        0.000000000000000
        0.000485509212766
        0.001758608914683
        0.003442024655414
        0.002793593540461
       -0.000360029219094
       -0.000726579990962
       -0.000289693504108
        0.000000000000000
        0.000000000000000
        0.000000000000000
        0.000592535053603
        0.001176480597848
        0.001202019199558
        0.000512801596705
        0.000048861814081
       -0.000022107106120
        0.000000000000000
        0.000000000000000
        0.000000000000000
        0.000000000000000
        0.000000000000000
        0.000225579198638
        0.000144086347522
        0.000000000000000
        0.000000000000000
        0.000000000000000
        0.000000000000000
        0.000000000000000
        0.000000000000000
        0.000000000000000
        0.000000000000000
        0.000000000000000
        0.000000000000000
        0.000000000000000
        0.000000000000000
        0.000000000000000
        0.000000000000000
       -0.000550496688860
       -0.001277157304112
       -0.001557467962522
       -0.000983831413501
        0.000000000000000
        0.000000000000000
        0.000000000000000
        0.000000000000000
       -0.000410306601980
       -0.001880429208855
       -0.004650631311092
       -0.005906649893408
       -0.003867105520650
       -0.001417236625752
        0.000000000000000
        0.000000000000000
        0.000000000000000
       -0.000660882639524
       -0.003355362086811
       -0.010079123885499
       -0.013973031460271
       -0.008797095957942
       -0.003351861106812
       -0.000768276683094
        0.000000000000000
        0.000000000000000
       -0.000417697627050
       -0.002456894986849
       -0.008756207324422
       -0.015932647115629
       -0.011320065924011
       -0.004266045076173
       -0.001048376950255
        0.000000000000000
        0.000000000000000
       -0.000035627976251
       -0.000539394993067
       -0.002632662916051
       -0.006080055619229
       -0.005911850952190
       -0.002612415095184
       -0.000707847011338
        0.000000000000000
        0.000000000000000
        0.000000000000000
        0.000164887068972
       -0.000007626434349
       -0.000782683122095
       -0.001300334623959
       -0.000783365113071
       -0.000240784005977
        0.000000000000000
        0.000000000000000
        0.000000000000000
        0.000000000000000
        0.000189747093159
        0.000109042861576
       -0.000079219862935
       -0.000096936191132
        0.000000000000000
        0.000000000000000
        0.000000000000000
        0.000000000000000
        0.000000000000000
        0.000000000000000
        0.000000000000000
        0.000000000000000
        0.000000000000000
        0.000000000000000
        0.000000000000000
        0.000000000000000
        0.000000000000000
        0.000000000000000
        0.000000000000000
        0.000000000000000
        0.000000000000000
        0.000000000000000
        0.000000000000000
        0.000000000000000
        0.000000000000000
        0.000000000000000
        0.000000000000000
       -0.000400773000277
       -0.000459926861244
        0.000000000000000
        0.000000000000000
        0.000000000000000
        0.000000000000000
        0.000000000000000
        0.000000000000000
       -0.000566255618248
       -0.001314933733018
       -0.001608843707441
       -0.001020088227967
        0.000000000000000
        0.000000000000000
        0.000000000000000
        0.000000000000000
       -0.000243929692486
       -0.001027553401476
       -0.002427665882721
       -0.003183579770352
       -0.002257006973033
       -0.000903421526683
        0.000000000000000
        0.000000000000000
        0.000000000000000
       -0.000205786547849
       -0.000906174632720
       -0.002367758069764
       -0.003479513689128
       -0.002734192534434
       -0.001242339430318
       -0.000326221801808
        0.000000000000000
        0.000000000000000
        0.000000000000000
       -0.000374293872974
       -0.001125577420339
       -0.001915297451620
       -0.001711352191307
       -0.000852608965215
       -0.000251256292309
        0.000000000000000
        0.000000000000000
        0.000000000000000
        0.000000000000000
       -0.000255041607365
       -0.000533889420157
       -0.000561791071662
       -0.000302321383995
        0.000000000000000
        0.000000000000000
        0.000000000000000
        0.000000000000000
        0.000000000000000
        0.000000000000000
       -0.000068835344468
       -0.000091576596062
        0.000000000000000
        0.000000000000000
        0.000000000000000
        0.000000000000000
        0.000000000000000
        0.000000000000000
        0.000000000000000
        0.000000000000000
        0.000000000000000
        0.000000000000000
        0.000000000000000
        0.000000000000000
        0.000000000000000
        0.000000000000000
        0.000000000000000
        0.000000000000000
        0.000000000000000
        0.000000000000000
        0.000000000000000
        0.000000000000000
        0.000000000000000
        0.000000000000000
        0.000000000000000
        0.000000000000000
        0.000000000000000
        0.000000000000000
        0.000000000000000
        0.000000000000000
        0.000000000000000
        0.000000000000000
        0.000000000000000
        0.000000000000000
        0.000000000000000
        0.000000000000000
        0.000000000000000
        0.000000000000000
        0.000000000000000
        0.000000000000000
        0.000000000000000
        0.000000000000000
        0.000000000000000
        0.000000000000000
       -0.000384193894309
       -0.000470397027140
        0.000000000000000
        0.000000000000000
        0.000000000000000
        0.000000000000000
        0.000000000000000
        0.000000000000000
        0.000000000000000
       -0.000390219274945
       -0.000599640383468
       -0.000414391330261
        0.000000000000000
        0.000000000000000
        0.000000000000000
        0.000000000000000
        0.000000000000000
        0.000000000000000
        0.000000000000000
       -0.000334021323119
       -0.000300874193436
        0.000000000000000
        0.000000000000000
        0.000000000000000
        0.000000000000000
        0.000000000000000
        0.000000000000000
        0.000000000000000
        0.000000000000000
        0.000000000000000
        0.000000000000000
        0.000000000000000
        0.000000000000000
        0.000000000000000
        0.000000000000000
        0.000000000000000
        0.000000000000000
        0.000000000000000
        0.000000000000000
        0.000000000000000
        0.000000000000000
        0.000000000000000
        0.000000000000000
        0.000000000000000
        0.000000000000000
        0.000000000000000
        0.000000000000000
        0.000000000000000
        0.000000000000000
        0.000000000000000
        0.000000000000000
END_DATAGRID_3D
END_BLOCK_DATAGRID_3D
