ATOMS
         C    7.558905    7.558905    7.558905
         H    8.755769    8.755769    8.755769
         H    6.362040    6.362040    8.755769
         H    8.755769    6.362040    6.362040
         H    6.362040    8.755769    6.362040
BEGIN_BLOCK_DATAGRID_3D
units: coords = b, function = sqrt(b^-3)
BEGIN_DATAGRID_3D_function
      9      9      9
0.0 0.0 0.0
   15.117809    0.000000    0.000000
    0.000000   15.117809    0.000000
    0.000000    0.000000   15.117809
        0.000000000000000
        0.000000000000000
        0.000000000000000
        0.000000000000000
        0.000000000000000
        0.000000000000000
        0.000000000000000
        0.000000000000000
        0.000000000000000
        0.000000000000000
        0.000000000000000
        0.000000000000000
        0.000000000000000
        0.000000000000000
        0.000000000000000
        0.000000000000000
        0.000000000000000
        0.000000000000000
        0.000000000000000
        0.000000000000000
        0.000000000000000
        0.000000000000000
        0.000000000000000
        0.000000000000000
        0.000000000000000
        0.000000000000000
        0.000000000000000
        0.000000000000000
        0.000000000000000
        0.000000000000000
        0.000000000000000
       -0.000487239824008
       -0.000475867802245
        0.000000000000000
        0.000000000000000
        0.000000000000000
        0.000000000000000
        0.000000000000000
        0.000000000000000
       -0.000288540106681
       -0.000567987320924
       -0.000475223454474
        0.000000000000000
        0.000000000000000
        0.000000000000000
        0.000000000000000
        0.000000000000000
        0.000000000000000
       -0.000176756794318
       -0.000274797160856
        0.000000000000000
        0.000000000000000
        0.000000000000000
        0.000000000000000
        0.000000000000000
        0.000000000000000
        0.000000000000000
        0.000000000000000
        0.000000000000000
        0.000000000000000
        0.000000000000000
        0.000000000000000
        0.000000000000000
        0.000000000000000
        0.000000000000000
        0.000000000000000
        0.000000000000000
        0.000000000000000
        0.000000000000000
        0.000000000000000
        0.000000000000000
        0.000000000000000
        0.000000000000000
        0.000000000000000
        0.000000000000000
        0.000000000000000
        0.000000000000000
        0.000000000000000
        0.000000000000000
        0.000000000000000
        0.000000000000000
        0.000000000000000
        0.000000000000000
        0.000000000000000
        0.000000000000000
        0.000000000000000
        0.000000000000000
        0.000000000000000
        0.000000000000000
        0.000000000000000
        0.000000000000000
        0.000000000000000
        0.000000000000000
        0.000000000000000
       -0.000510426507493
       -0.000517621701438
        0.000000000000000
        0.000000000000000
        0.000000000000000
        0.000000000000000
        0.000000000000000
        0.000000000000000
       -0.000861629284705
       -0.001723903878904
       -0.001740781756383
       -0.000889015087656
        0.000000000000000
        0.000000000000000
        0.000000000000000
        0.000000000000000
       -0.000456839430186
       -0.001697910979067
       -0.003274811135801
       -0.003228196552162
       -0.001696575597288
       -0.000493976239445
        0.000000000000000
        0.000000000000000
       -0.000043001033362
       -0.000444306591149
       -0.001708272580879
       -0.003295709337014
       -0.003135160269898
       -0.001607976367792
       -0.000470497549228
        0.000000000000000
        0.000000000000000
        0.000009813817912
       -0.000119876261601
       -0.000724473341935
       -0.001554503745694
       -0.001492865404899
       -0.000749165091019
        0.000000000000000
        0.000000000000000
        0.000000000000000
        0.000000000000000
        0.000042452558356
       -0.000061128545935
       -0.000305399213200
       -0.000333489847090
        0.000000000000000
        0.000000000000000
        0.000000000000000
        0.000000000000000
        0.000000000000000
        0.000000000000000
        0.000042900601380
        0.000009381671521
        0.000000000000000
        0.000000000000000
        0.000000000000000
        0.000000000000000
        0.000000000000000
        0.000000000000000
        0.000000000000000
        0.000000000000000
        0.000000000000000
        0.000000000000000
        0.000000000000000
        0.000000000000000
        0.000000000000000
        0.000000000000000
        0.000000000000000
        0.000000000000000
        0.000000000000000
        0.000000000000000
        0.000000000000000
        0.000000000000000
        0.000000000000000
        0.000000000000000
        0.000000000000000
        0.000000000000000
        0.000000000000000
       -0.000834546768511
       -0.001684756697532
       -0.001711398719989
       -0.000876509491617
        0.000000000000000
        0.000000000000000
        0.000000000000000
        0.000000000000000
       -0.000731790297282
       -0.003021928175592
       -0.006338279515134
       -0.006510959487530
       -0.003208160114300
       -0.000854356730507
        0.000000000000000
        0.000000000000000
       -0.000098130903455
       -0.001263190915541
       -0.005976518138771
       -0.014544099817061
       -0.014775513380627
       -0.006296020234872
       -0.001610063309265
        0.000000000000000
        0.000000000000000
        0.000066862910204
       -0.000718148493965
       -0.005501147669031
       -0.015090277330646
       -0.013571009560636
       -0.005717124507550
       -0.001484693941741
        0.000000000000000
        0.000000000000000
        0.000257729442827
        0.000489995720733
       -0.000554487276672
       -0.004447391185612
       -0.004776274504073
       -0.002391005708931
       -0.000659357687333
        0.000000000000000
        0.000000000000000
        0.000200621457321
        0.000586225292756
        0.000768409935673
        0.000003450011923
       -0.000585161261613
       -0.000417606260363
        0.000000000000000
        0.000000000000000
        0.000000000000000
        0.000000000000000
        0.000232213860579
        0.000393756691908
        0.000313242321300
        0.000103096938618
        0.000000000000000
        0.000000000000000
        0.000000000000000
        0.000000000000000
        0.000000000000000
        0.000000000000000
        0.000000000000000
        0.000000000000000
        0.000000000000000
        0.000000000000000
        0.000000000000000
        0.000000000000000
        0.000000000000000
        0.000000000000000
        0.000000000000000
        0.000000000000000
       -0.000453166588392
       -0.000448774822945
        0.000000000000000
        0.000000000000000
        0.000000000000000
        0.000000000000000
        0.000000000000000
       -0.000397970668390
       -0.001557742122522
       -0.003085002405078
       -0.003092771167231
       -0.001641686394955
       -0.000480023689530
        0.000000000000000
        0.000000000000000
       -0.000066399642422
       -0.001123268907694
       -0.005606639532745
       -0.014003796642134
       -0.014437471290498
       -0.006181194566664
       -0.001584602570003
        0.000000000000000
        0.000000000000000
        0.000169151532608
       -0.001028697318631
       -0.011282794250787
       -0.041055526505089
       -0.043878569199217
       -0.013744183557432
       -0.002818082732690
       -0.000393599903103
        0.000156591868861
        0.000782450364904
        0.001620413163459
       -0.005868081078686
       -0.040025539052035
       -0.036192337289688
       -0.011804816339142
       -0.002523931096051
       -0.000367004009093
        0.000172336315525
        0.001024656208807
        0.003826626766298
        0.008190346580259
       -0.000707869406861
       -0.006308558273272
       -0.003508320750665
       -0.001019078175154
        0.000000000000000
        0.000000000000000
        0.000636216856368
        0.002231621717860
        0.004678174840119
        0.004089142777818
        0.001188614946492
       -0.000087820964594
       -0.000126510634723
        0.000000000000000
        0.000000000000000
        0.000217219489265
        0.000712783605623
        0.001372050557410
        0.001444580552477
        0.000767568661829
        0.000219411186528
        0.000000000000000
        0.000000000000000
        0.000000000000000
        0.000000000000000
        0.000000000000000
        0.000242914625632
        0.000263218742535
        0.000000000000000
        0.000000000000000
        0.000000000000000
        0.000000000000000
        0.000000000000000
        0.000000000000000
        0.000000000000000
       -0.000239129207905
       -0.000500363688613
       -0.000434000694413
        0.000000000000000
        0.000000000000000
        0.000000000000000
        0.000000000000000
       -0.000006414896902
       -0.000305156206437
       -0.001396224922290
       -0.002903291172513
       -0.002872737896980
       -0.001506356269872
       -0.000447925705125
        0.000000000000000
        0.000000000000000
        0.000166613432862
       -0.000273470030349
       -0.004245960013555
       -0.013293320060055
       -0.012567370172111
       -0.005410571814483
       -0.001422413417791
        0.000000000000000
        0.000171809326733
        0.000904013087373
        0.002333347036765
       -0.003051398139791
       -0.035258484902420
       -0.034042211629206
       -0.011342370166708
       -0.002451834942562
       -0.000359987772182
        0.000321242643091
        0.001881239378882
        0.008715181013064
        0.023365545407431
        0.000054974443104
       -0.023804201821551
       -0.009065908869685
       -0.002001718847879
       -0.000347869877960
        0.000259143669054
        0.001853626112300
        0.008632848287652
        0.027430326386812
        0.035285372140594
        0.009203536850361
       -0.000070425132308
       -0.000480491792782
       -0.000106756679392
        0.000000000000000
        0.000992653641615
        0.003930794761932
        0.010033787122582
        0.013299405844141
        0.006669106904219
        0.001602910366514
        0.000190637100095
        0.000000000000000
        0.000000000000000
        0.000292585234950
        0.001097106704876
        0.002353870767722
        0.002904238742337
        0.001896795448474
        0.000682045399725
        0.000143906781353
        0.000000000000000
        0.000000000000000
        0.000000000000000
        0.000000000000000
        0.000349927279998
        0.000500446251137
        0.000321169074269
        0.000000000000000
        0.000000000000000
        0.000000000000000
        0.000000000000000
        0.000000000000000
        0.000000000000000
       -0.000126724129578
       -0.000218151731416
        0.000000000000000
        0.000000000000000
        0.000000000000000
        0.000000000000000
        0.000000000000000
        0.000050857007528
        0.000035627292611
       -0.000394260226840
       -0.001169260352180
       -0.001251819487584
       -0.000664618322443
        0.000000000000000
        0.000000000000000
        0.000000000000000
        0.000383409437825
        0.001041012541244
        0.000904411659881
       -0.002725975361304
       -0.003858519736586
       -0.002095349318533
       -0.000602163217344
        0.000000000000000
        0.000195108622525
        0.001217940698408
        0.004942879913460
        0.012336491358169
        0.004266000978074
       -0.004185683053617
       -0.002962604625644
       -0.000919165266312
        0.000000000000000
        0.000274361126926
        0.001975188834769
        0.009345782160958
        0.030247009325707
        0.040052426290207
        0.011353662510843
        0.000392021040126
       -0.000408395639293
       -0.000099740442481
        0.000000000000000
        0.001654872764411
        0.007244460400381
        0.021584251044593
        0.037527308183468
        0.022960560305576
        0.004618264614157
        0.000433158825996
       -0.000004404763959
        0.000000000000000
        0.000752291992876
        0.003220549954892
        0.008227571111456
        0.012648906905933
        0.008746881211830
        0.002773798738440
        0.000501136473477
        0.000000000000000
        0.000000000000000
        0.000000000000000
        0.000825934658967
        0.002033118455114
        0.002811085185558
        0.002096038732201
        0.000862615256822
        0.000195222371357
        0.000000000000000
        0.000000000000000
        0.000000000000000
        0.000000000000000
        0.000000000000000
        0.000408265964021
        0.000330401532066
        0.000000000000000
        0.000000000000000
        0.000000000000000
        0.000000000000000
        0.000000000000000
        0.000000000000000
        0.000000000000000
        0.000000000000000
        0.000000000000000
        0.000000000000000
        0.000000000000000
        0.000000000000000
        0.000000000000000
        0.000000000000000
        0.000127050330383
        0.000120460235811
       -0.000102887452039
       -0.000216724541452
        0.000000000000000
        0.000000000000000
        0.000000000000000
        0.000000000000000
        0.000272446244860
        0.000883111469290
        0.001436637755756
        0.000757924686942
       -0.000148119209235
       -0.000277120444815
        0.000000000000000
        0.000000000000000
        0.000000000000000
        0.000761896851366
        0.002782638538371
        0.006137073776671
        0.005810558602126
        0.002106369713979
        0.000207835425804
       -0.000069316164734
        0.000000000000000
        0.000000000000000
        0.001092404164273
        0.004375473225548
        0.011288974778059
        0.015096363114732
        0.007672746292744
        0.001909463059581
        0.000252917624046
        0.000000000000000
        0.000000000000000
        0.000784023253909
        0.003360471962739
        0.008597449717482
        0.013189210080859
        0.009084923301959
        0.002888624406648
        0.000526597212740
        0.000000000000000
        0.000000000000000
        0.000000000000000
        0.001399592076156
        0.003742031577323
        0.005579760557959
        0.004262974130772
        0.001678361136754
        0.000351763793103
        0.000000000000000
        0.000000000000000
        0.000000000000000
        0.000000000000000
        0.000946359682523
        0.001474983152439
        0.001187121477082
        0.000502689633434
        0.000000000000000
        0.000000000000000
        0.000000000000000
        0.000000000000000
        0.000000000000000
        0.000000000000000
        0.000000000000000
        0.000000000000000
        0.000000000000000
        0.000000000000000
        0.000000000000000
        0.000000000000000
        0.000000000000000
        0.000000000000000
        0.000000000000000
        0.000000000000000
        0.000000000000000
        0.000000000000000
        0.000000000000000
        0.000000000000000
        0.000000000000000
        0.000000000000000
        0.000000000000000
        0.000098226549143
        0.000069012517833
        0.000000000000000
        0.000000000000000
        0.000000000000000
        0.000000000000000
        0.000000000000000
        0.000000000000000
        0.000316811632607
        0.000575345473654
        0.000515754082462
        0.000219862244256
        0.000000000000000
        0.000000000000000
        0.000000000000000
        0.000000000000000
        0.000258262678881
        0.000868287159834
        0.001702263672504
        0.001829823945990
        0.001008614579145
        0.000303957955105
        0.000000000000000
        0.000000000000000
        0.000000000000000
        0.000329171371410
        0.001236257089588
        0.002665918426311
        0.003296656906838
        0.002159217821391
        0.000783665497646
        0.000166478625456
        0.000000000000000
        0.000000000000000
        0.000000000000000
        0.000884803420763
        0.002173287311659
        0.003000893916282
        0.002231464117131
        0.000917504459154
        0.000209174921272
        0.000000000000000
        0.000000000000000
        0.000000000000000
        0.000000000000000
        0.000973442198717
        0.001514130333811
        0.001216504513476
        0.000515195229473
        0.000000000000000
        0.000000000000000
        0.000000000000000
        0.000000000000000
        0.000000000000000
        0.000000000000000
        0.000432162645187
        0.000373827146775
        0.000000000000000
        0.000000000000000
        0.000000000000000
        0.000000000000000
        0.000000000000000
        0.000000000000000
        0.000000000000000
        0.000000000000000
        0.000000000000000
        0.000000000000000
        0.000000000000000
        0.000000000000000
        0.000000000000000
        0.000000000000000
        0.000000000000000
        0.000000000000000
        0.000000000000000
        0.000000000000000
        0.000000000000000
        0.000000000000000
        0.000000000000000
        0.000000000000000
        0.000000000000000
        0.000000000000000
        0.000000000000000
        0.000000000000000
        0.000000000000000
        0.000000000000000
        0.000000000000000
        0.000000000000000
        0.000000000000000
        0.000000000000000
        0.000000000000000
        0.000000000000000
        0.000000000000000
        0.000000000000000
        0.000000000000000
        0.000000000000000
        0.000000000000000
        0.000000000000000
        0.000000000000000
        0.000000000000000
        0.000292947290372
        0.000319864171975
        0.000000000000000
        0.000000000000000
        0.000000000000000
        0.000000000000000
        0.000000000000000
        0.000000000000000
        0.000000000000000
        0.000399338178774
        0.000568069883447
        0.000362391834330
        0.000000000000000
        0.000000000000000
        0.000000000000000
        0.000000000000000
        0.000000000000000
        0.000000000000000
        0.000000000000000
        0.000442339199638
        0.000357494511366
        0.000000000000000
        0.000000000000000
        0.000000000000000
        0.000000000000000
        0.000000000000000
        0.000000000000000
        0.000000000000000
        0.000000000000000
        0.000000000000000
        0.000000000000000
        0.000000000000000
        0.000000000000000
        0.000000000000000
        0.000000000000000
        0.000000000000000
        0.000000000000000
        0.000000000000000
        0.000000000000000
        0.000000000000000
        0.000000000000000
        0.000000000000000
        0.000000000000000
        0.000000000000000
        0.000000000000000
        0.000000000000000
        0.000000000000000
        0.000000000000000
        0.000000000000000
        0.000000000000000
        0.000000000000000
END_DATAGRID_3D
END_BLOCK_DATAGRID_3D
