ATOMS
         C    7.558905    7.558905    7.558905
         H    8.755769    8.755769    8.755769
         H    6.362040    6.362040    8.755769
         H    8.755769    6.362040    6.362040
         H    6.362040    8.755769    6.362040
BEGIN_BLOCK_DATAGRID_3D
units: coords = b, function = sqrt(b^-3)
BEGIN_DATAGRID_3D_function
      9      9      9
0.0 0.0 0.0
   15.117809    0.000000    0.000000
    0.000000   15.117809    0.000000
    0.000000    0.000000   15.117809
        0.000000000000000
        0.000000000000000
        0.000000000000000
        0.000000000000000
        0.000000000000000
        0.000000000000000
        0.000000000000000
        0.000000000000000
        0.000000000000000
        0.000000000000000
        0.000000000000000
        0.000000000000000
        0.000000000000000
        0.000000000000000
        0.000000000000000
        0.000000000000000
        0.000000000000000
        0.000000000000000
        0.000000000000000
        0.000000000000000
        0.000000000000000
        0.000000000000000
        0.000000000000000
        0.000000000000000
        0.000000000000000
        0.000000000000000
        0.000000000000000
        0.000000000000000
        0.000000000000000
        0.000000000000000
        0.000000000000000
       -0.000135499093016
        0.000051079546227
        0.000000000000000
        0.000000000000000
        0.000000000000000
        0.000000000000000
        0.000000000000000
        0.000000000000000
       -0.000300335262571
       -0.000125687793869
        0.000131319981619
        0.000000000000000
        0.000000000000000
        0.000000000000000
        0.000000000000000
        0.000000000000000
        0.000000000000000
       -0.000195070392361
       -0.000032970993500
        0.000000000000000
        0.000000000000000
        0.000000000000000
        0.000000000000000
        0.000000000000000
        0.000000000000000
        0.000000000000000
        0.000000000000000
        0.000000000000000
        0.000000000000000
        0.000000000000000
        0.000000000000000
        0.000000000000000
        0.000000000000000
        0.000000000000000
        0.000000000000000
        0.000000000000000
        0.000000000000000
        0.000000000000000
        0.000000000000000
        0.000000000000000
        0.000000000000000
        0.000000000000000
        0.000000000000000
        0.000000000000000
        0.000000000000000
        0.000000000000000
        0.000000000000000
        0.000000000000000
        0.000000000000000
        0.000000000000000
        0.000000000000000
        0.000000000000000
        0.000000000000000
        0.000000000000000
        0.000000000000000
        0.000000000000000
        0.000000000000000
        0.000000000000000
        0.000000000000000
        0.000000000000000
        0.000000000000000
        0.000000000000000
        0.000000000000000
       -0.000292572953578
       -0.000099851155065
        0.000000000000000
        0.000000000000000
        0.000000000000000
        0.000000000000000
        0.000000000000000
        0.000000000000000
       -0.001061626567752
       -0.000885696244300
       -0.000013408267415
        0.000292001180450
        0.000000000000000
        0.000000000000000
        0.000000000000000
        0.000000000000000
       -0.001403641205110
       -0.002273890906861
       -0.001266725813350
        0.000599556393816
        0.000960934115824
        0.000433678830637
        0.000000000000000
        0.000000000000000
       -0.000686966717718
       -0.001958767063797
       -0.002572191573566
       -0.000729857532351
        0.001496944613736
        0.001499977898975
        0.000571206555536
        0.000000000000000
        0.000000000000000
       -0.000541375417763
       -0.001362595958042
       -0.001472392453047
        0.000197124260476
        0.001561495539756
        0.001131541217124
        0.000000000000000
        0.000000000000000
        0.000000000000000
        0.000000000000000
       -0.000477265374504
       -0.000382498736997
        0.000436258853561
        0.000793926598405
        0.000000000000000
        0.000000000000000
        0.000000000000000
        0.000000000000000
        0.000000000000000
        0.000000000000000
       -0.000003903933911
        0.000181942969228
        0.000000000000000
        0.000000000000000
        0.000000000000000
        0.000000000000000
        0.000000000000000
        0.000000000000000
        0.000000000000000
        0.000000000000000
        0.000000000000000
        0.000000000000000
        0.000000000000000
        0.000000000000000
        0.000000000000000
        0.000000000000000
        0.000000000000000
        0.000000000000000
        0.000000000000000
        0.000000000000000
        0.000000000000000
        0.000000000000000
        0.000000000000000
        0.000000000000000
        0.000000000000000
        0.000000000000000
        0.000000000000000
       -0.001410151004679
       -0.001383943989673
       -0.000383080656121
        0.000136397949504
        0.000000000000000
        0.000000000000000
        0.000000000000000
        0.000000000000000
       -0.002857324687599
       -0.005396378987369
       -0.004285695431782
        0.000065403563158
        0.001287169057682
        0.000618992668860
        0.000000000000000
        0.000000000000000
       -0.002039904310892
       -0.006889473013035
       -0.011779008910953
       -0.007287749096823
        0.004221461183844
        0.004504048198349
        0.001736648697115
        0.000000000000000
        0.000000000000000
       -0.002869037798584
       -0.009018883067958
       -0.014859895859292
       -0.003346822832554
        0.010615088088042
        0.007573434118817
        0.002543776847882
        0.000000000000000
        0.000000000000000
       -0.002038720555889
       -0.005786043971411
       -0.007605422247642
        0.003076122468268
        0.009364798171971
        0.006050451798189
        0.001860674561792
        0.000000000000000
        0.000000000000000
       -0.000762167270217
       -0.001859559013123
       -0.001324739095233
        0.002880687295623
        0.004577875424709
        0.002587603345605
        0.000000000000000
        0.000000000000000
        0.000000000000000
        0.000000000000000
       -0.000275282593782
        0.000096226369718
        0.001079772581302
        0.001243112854976
        0.000000000000000
        0.000000000000000
        0.000000000000000
        0.000000000000000
        0.000000000000000
        0.000000000000000
        0.000000000000000
        0.000000000000000
        0.000000000000000
        0.000000000000000
        0.000000000000000
        0.000000000000000
        0.000000000000000
        0.000000000000000
        0.000000000000000
        0.000000000000000
       -0.000568803112173
       -0.000289979942123
        0.000000000000000
        0.000000000000000
        0.000000000000000
        0.000000000000000
        0.000000000000000
       -0.002170216449526
       -0.004078535489027
       -0.003682362710036
       -0.001104336240937
        0.000278130046750
        0.000262058971584
        0.000000000000000
        0.000000000000000
       -0.002458021995979
       -0.008711984294205
       -0.016540513129834
       -0.014163936504052
       -0.000032190544248
        0.003075550702584
        0.001423471581367
        0.000000000000000
        0.000000000000000
       -0.005564043588438
       -0.020445741092614
       -0.043561009167346
       -0.031969103010755
        0.017797102004559
        0.013172519051113
        0.004178090417708
        0.000766183741132
       -0.001092667650969
       -0.006981463089933
       -0.027378535999466
       -0.061568536063518
       -0.008893677615081
        0.052137605353470
        0.025065677776359
        0.006561904799153
        0.001039065854952
       -0.000818995273087
       -0.004585582813943
       -0.015356773396047
       -0.025676962605602
        0.022679815858977
        0.039537775500258
        0.019351455022458
        0.005339715108255
        0.000000000000000
        0.000000000000000
       -0.001631005826467
       -0.003931923261989
       -0.002099431398405
        0.011956579474007
        0.015499893823053
        0.008392356158973
        0.002396486369278
        0.000000000000000
        0.000000000000000
       -0.000317950146326
       -0.000476086641047
        0.000733895758037
        0.003316999900298
        0.003886138476491
        0.002116650351100
        0.000000000000000
        0.000000000000000
        0.000000000000000
        0.000000000000000
        0.000000000000000
        0.000246333544911
        0.000527146150527
        0.000000000000000
        0.000000000000000
        0.000000000000000
        0.000000000000000
        0.000000000000000
        0.000000000000000
        0.000000000000000
       -0.000936149621857
       -0.000986351350959
       -0.000387618881504
        0.000000000000000
        0.000000000000000
        0.000000000000000
        0.000000000000000
       -0.001169091464007
       -0.003771307152557
       -0.006589811680005
       -0.005724133597486
       -0.001804756360568
        0.000235856989019
        0.000293509223862
        0.000000000000000
        0.000000000000000
       -0.004183661238873
       -0.014810526283712
       -0.031016978490938
       -0.026216320123184
       -0.002015256033354
        0.003759766969122
        0.001777704331902
        0.000000000000000
       -0.001295292715285
       -0.008584593519086
       -0.036659611570980
       -0.097808284770896
       -0.069562247942960
        0.025064247558706
        0.019311142297748
        0.005675483244358
        0.000953467807116
       -0.001697240589847
       -0.009835122745309
       -0.044939699434647
       -0.119174929354785
       -0.000034406636435
        0.118775264163926
        0.044755618247426
        0.009751870690544
        0.001677935255905
       -0.000981234700785
       -0.005827044269608
       -0.019915087898969
       -0.026554272422654
        0.069450735587122
        0.098854009040895
        0.037003606060870
        0.008615094596816
        0.001298185757214
        0.000000000000000
       -0.001871754571669
       -0.004069626092804
        0.001484737214885
        0.026186042291253
        0.031434189419222
        0.015017002893734
        0.004228149659999
        0.000000000000000
        0.000000000000000
       -0.000325540058884
       -0.000317669223509
        0.001702678836908
        0.005719679102994
        0.006671743913518
        0.003828399152851
        0.001188988056303
        0.000000000000000
        0.000000000000000
        0.000000000000000
        0.000000000000000
        0.000371185663367
        0.000985727174276
        0.000950764206592
        0.000000000000000
        0.000000000000000
        0.000000000000000
        0.000000000000000
        0.000000000000000
        0.000000000000000
       -0.000838859867140
       -0.000754415478326
        0.000000000000000
        0.000000000000000
        0.000000000000000
        0.000000000000000
        0.000000000000000
       -0.001082200278400
       -0.003388233365785
       -0.005723853368620
       -0.004705804035123
       -0.001471327366553
        0.000079475594514
        0.000000000000000
        0.000000000000000
        0.000000000000000
       -0.003695258653555
       -0.012962182353951
       -0.026386736733042
       -0.018833060800981
       -0.002183926461677
        0.002372614665309
        0.001156941359263
        0.000000000000000
       -0.001122161162432
       -0.007135446792721
       -0.029883041363621
       -0.079042655057187
       -0.040632538284953
        0.012812230652956
        0.012563339000810
        0.004110505920662
        0.000000000000000
       -0.001183859765100
       -0.007430174698761
       -0.029196163470483
       -0.062794021130033
        0.008782165259243
        0.071780651246131
        0.031249070582259
        0.007728673042021
        0.001212587709378
        0.000000000000000
       -0.003963927825440
       -0.011637003692911
       -0.008994184038306
        0.049763939878355
        0.086553835020768
        0.031860046922666
        0.007443766977673
        0.001153755634114
        0.000000000000000
       -0.001124110359276
       -0.002115726313244
        0.003166466507273
        0.020998859311489
        0.028414165201294
        0.013727548531503
        0.003859015993812
        0.000000000000000
        0.000000000000000
        0.000000000000000
       -0.000038354741862
        0.001652429972146
        0.005064218153818
        0.006074985543951
        0.003562935432959
        0.001126706417925
        0.000000000000000
        0.000000000000000
        0.000000000000000
        0.000000000000000
        0.000000000000000
        0.000795380734666
        0.000880720344962
        0.000000000000000
        0.000000000000000
        0.000000000000000
        0.000000000000000
        0.000000000000000
        0.000000000000000
        0.000000000000000
        0.000000000000000
        0.000000000000000
        0.000000000000000
        0.000000000000000
        0.000000000000000
        0.000000000000000
        0.000000000000000
       -0.001578856462602
       -0.002720517156183
       -0.002141039195030
       -0.000675806019939
        0.000000000000000
        0.000000000000000
        0.000000000000000
        0.000000000000000
       -0.001708586417254
       -0.005726706668024
       -0.009927919404758
       -0.006721496528309
       -0.000921103416193
        0.000839412911531
        0.000000000000000
        0.000000000000000
        0.000000000000000
       -0.003287543924133
       -0.011108061644528
       -0.020880745883805
       -0.009952603795241
        0.003951169189405
        0.004714519026092
        0.001692753166748
        0.000000000000000
        0.000000000000000
       -0.003186378011958
       -0.009861269308558
       -0.014672345416761
        0.003316545000623
        0.018803845297825
        0.011203335744039
        0.003462077144019
        0.000000000000000
        0.000000000000000
       -0.001542228044362
       -0.003938237594414
       -0.001595037711608
        0.014122671904261
        0.024160513473202
        0.012299051035737
        0.003545838878064
        0.000000000000000
        0.000000000000000
        0.000000000000000
       -0.000588902313166
        0.001721431282604
        0.008112078708455
        0.011145517438098
        0.006255659871817
        0.001831828757420
        0.000000000000000
        0.000000000000000
        0.000000000000000
        0.000000000000000
        0.000840206429989
        0.002442040068143
        0.002997538848554
        0.001707488753612
        0.000000000000000
        0.000000000000000
        0.000000000000000
        0.000000000000000
        0.000000000000000
        0.000000000000000
        0.000000000000000
        0.000000000000000
        0.000000000000000
        0.000000000000000
        0.000000000000000
        0.000000000000000
        0.000000000000000
        0.000000000000000
        0.000000000000000
        0.000000000000000
        0.000000000000000
        0.000000000000000
        0.000000000000000
        0.000000000000000
        0.000000000000000
        0.000000000000000
        0.000000000000000
       -0.000715795747081
       -0.000577490313870
        0.000000000000000
        0.000000000000000
        0.000000000000000
        0.000000000000000
        0.000000000000000
        0.000000000000000
       -0.001376873681881
       -0.002241792049468
       -0.001497525467289
       -0.000226619763369
        0.000000000000000
        0.000000000000000
        0.000000000000000
        0.000000000000000
       -0.000858775006962
       -0.002501724048790
       -0.003517565157535
       -0.001585928395301
        0.000853315570182
        0.001064584728489
        0.000000000000000
        0.000000000000000
        0.000000000000000
       -0.000807664805172
       -0.002130209312270
       -0.002314941269531
        0.000725403037858
        0.003370042939214
        0.002564278242896
        0.000911290724629
        0.000000000000000
        0.000000000000000
        0.000000000000000
       -0.000804929986277
       -0.000152214610020
        0.002648581257132
        0.004371092909198
        0.002880131363885
        0.000955086558871
        0.000000000000000
        0.000000000000000
        0.000000000000000
        0.000000000000000
        0.000491681993062
        0.001943792322769
        0.002627866459848
        0.001551885522665
        0.000000000000000
        0.000000000000000
        0.000000000000000
        0.000000000000000
        0.000000000000000
        0.000000000000000
        0.000687297759252
        0.000817450444646
        0.000000000000000
        0.000000000000000
        0.000000000000000
        0.000000000000000
        0.000000000000000
        0.000000000000000
        0.000000000000000
        0.000000000000000
        0.000000000000000
        0.000000000000000
        0.000000000000000
        0.000000000000000
        0.000000000000000
        0.000000000000000
        0.000000000000000
        0.000000000000000
        0.000000000000000
        0.000000000000000
        0.000000000000000
        0.000000000000000
        0.000000000000000
        0.000000000000000
        0.000000000000000
        0.000000000000000
        0.000000000000000
        0.000000000000000
        0.000000000000000
        0.000000000000000
        0.000000000000000
        0.000000000000000
        0.000000000000000
        0.000000000000000
        0.000000000000000
        0.000000000000000
        0.000000000000000
        0.000000000000000
        0.000000000000000
        0.000000000000000
        0.000000000000000
        0.000000000000000
        0.000000000000000
        0.000000000000000
       -0.000397455929868
       -0.000194298334300
        0.000000000000000
        0.000000000000000
        0.000000000000000
        0.000000000000000
        0.000000000000000
        0.000000000000000
        0.000000000000000
       -0.000264628695919
        0.000125063617186
        0.000431825343468
        0.000000000000000
        0.000000000000000
        0.000000000000000
        0.000000000000000
        0.000000000000000
        0.000000000000000
        0.000000000000000
        0.000362076715508
        0.000539660856613
        0.000000000000000
        0.000000000000000
        0.000000000000000
        0.000000000000000
        0.000000000000000
        0.000000000000000
        0.000000000000000
        0.000000000000000
        0.000000000000000
        0.000000000000000
        0.000000000000000
        0.000000000000000
        0.000000000000000
        0.000000000000000
        0.000000000000000
        0.000000000000000
        0.000000000000000
        0.000000000000000
        0.000000000000000
        0.000000000000000
        0.000000000000000
        0.000000000000000
        0.000000000000000
        0.000000000000000
        0.000000000000000
        0.000000000000000
        0.000000000000000
        0.000000000000000
        0.000000000000000
        0.000000000000000
END_DATAGRID_3D
END_BLOCK_DATAGRID_3D
