ATOMS
         C    7.558905    7.558905    7.558905
         H    8.755769    8.755769    8.755769
         H    6.362040    6.362040    8.755769
         H    8.755769    6.362040    6.362040
         H    6.362040    8.755769    6.362040
BEGIN_BLOCK_DATAGRID_3D
units: coords = b, function = 1/hbar/H*b^-2
BEGIN_DATAGRID_3D_function
      9      9      9
0.0 0.0 0.0
   15.117809    0.000000    0.000000
    0.000000   15.117809    0.000000
    0.000000    0.000000   15.117809
        0.000000000000000
        0.000000000000000
        0.000000000000000
        0.000000000000000
        0.000000000000000
        0.000000000000000
        0.000000000000000
        0.000000000000000
        0.000000000000000
        0.000000000000000
        0.000000000000000
        0.000000000000000
        0.000000000000000
        0.000000000000000
        0.000000000000000
        0.000000000000000
        0.000000000000000
        0.000000000000000
        0.000000000000000
        0.000000000000000
        0.000000000000000
        0.000000000000000
        0.000000000000000
        0.000000000000000
        0.000000000000000
        0.000000000000000
        0.000000000000000
        0.000000000000000
        0.000000000000000
        0.000000000000000
        0.000000000000000
       -0.000000000000294
       -0.000000000000170
        0.000000000000000
        0.000000000000000
        0.000000000000000
        0.000000000000000
        0.000000000000000
        0.000000000000000
       -0.000000000000077
       -0.000000000001132
        0.000000000000147
        0.000000000000000
        0.000000000000000
        0.000000000000000
        0.000000000000000
        0.000000000000000
        0.000000000000000
       -0.000000000000639
        0.000000000000365
        0.000000000000000
        0.000000000000000
        0.000000000000000
        0.000000000000000
        0.000000000000000
        0.000000000000000
        0.000000000000000
        0.000000000000000
        0.000000000000000
        0.000000000000000
        0.000000000000000
        0.000000000000000
        0.000000000000000
        0.000000000000000
        0.000000000000000
        0.000000000000000
        0.000000000000000
        0.000000000000000
        0.000000000000000
        0.000000000000000
        0.000000000000000
        0.000000000000000
        0.000000000000000
        0.000000000000000
        0.000000000000000
        0.000000000000000
        0.000000000000000
        0.000000000000000
        0.000000000000000
        0.000000000000000
        0.000000000000000
        0.000000000000000
        0.000000000000000
        0.000000000000000
        0.000000000000000
        0.000000000000000
        0.000000000000000
        0.000000000000000
        0.000000000000000
        0.000000000000000
        0.000000000000000
        0.000000000000000
        0.000000000000000
        0.000000000000000
       -0.000000000000019
        0.000000000000646
        0.000000000000000
        0.000000000000000
        0.000000000000000
        0.000000000000000
        0.000000000000000
        0.000000000000000
       -0.000000000001397
        0.000000000001527
       -0.000000000001173
        0.000000000001262
        0.000000000000000
        0.000000000000000
        0.000000000000000
        0.000000000000000
       -0.000000000001104
       -0.000000000000083
       -0.000000000003283
        0.000000000002978
        0.000000000000839
        0.000000000000246
        0.000000000000000
        0.000000000000000
        0.000000000000305
        0.000000000000833
       -0.000000000006634
        0.000000000011287
        0.000000000007034
        0.000000000001857
        0.000000000000190
        0.000000000000000
        0.000000000000000
        0.000000000000559
       -0.000000000002924
       -0.000000000000820
        0.000000000003682
        0.000000000002416
       -0.000000000000346
        0.000000000000000
        0.000000000000000
        0.000000000000000
        0.000000000000000
        0.000000000000446
       -0.000000000000912
        0.000000000001163
       -0.000000000000053
        0.000000000000000
        0.000000000000000
        0.000000000000000
        0.000000000000000
        0.000000000000000
        0.000000000000000
        0.000000000000159
        0.000000000000514
        0.000000000000000
        0.000000000000000
        0.000000000000000
        0.000000000000000
        0.000000000000000
        0.000000000000000
        0.000000000000000
        0.000000000000000
        0.000000000000000
        0.000000000000000
        0.000000000000000
        0.000000000000000
        0.000000000000000
        0.000000000000000
        0.000000000000000
        0.000000000000000
        0.000000000000000
        0.000000000000000
        0.000000000000000
        0.000000000000000
        0.000000000000000
        0.000000000000000
        0.000000000000000
        0.000000000000000
        0.000000000000000
       -0.000000000001060
        0.000000000000865
       -0.000000000000470
        0.000000000000702
        0.000000000000000
        0.000000000000000
        0.000000000000000
        0.000000000000000
       -0.000000000002814
        0.000000000001198
       -0.000000000001585
        0.000000000004409
       -0.000000000002123
        0.000000000000546
        0.000000000000000
        0.000000000000000
       -0.000000000000455
       -0.000000000001239
        0.000000000024844
        0.000000000044643
        0.000000000012526
       -0.000000000026511
        0.000000000001588
        0.000000000000000
        0.000000000000000
        0.000000000000287
        0.000000000008688
        0.000000000120154
       -0.000000000201157
       -0.000000000138719
       -0.000000000014223
        0.000000000001958
        0.000000000000000
        0.000000000000000
       -0.000000000002971
        0.000000000040596
        0.000000000085338
       -0.000000000063176
       -0.000000000032450
        0.000000000003319
       -0.000000000000728
        0.000000000000000
        0.000000000000000
        0.000000000000368
       -0.000000000001636
        0.000000000009691
       -0.000000000003950
        0.000000000000881
       -0.000000000001089
        0.000000000000000
        0.000000000000000
        0.000000000000000
        0.000000000000000
        0.000000000000212
       -0.000000000000915
        0.000000000001379
       -0.000000000000123
        0.000000000000000
        0.000000000000000
        0.000000000000000
        0.000000000000000
        0.000000000000000
        0.000000000000000
        0.000000000000000
        0.000000000000000
        0.000000000000000
        0.000000000000000
        0.000000000000000
        0.000000000000000
        0.000000000000000
        0.000000000000000
        0.000000000000000
        0.000000000000000
        0.000000000000066
       -0.000000000000034
        0.000000000000000
        0.000000000000000
        0.000000000000000
        0.000000000000000
        0.000000000000000
       -0.000000000000761
       -0.000000000000419
        0.000000000000791
        0.000000000000613
        0.000000000000473
       -0.000000000000010
        0.000000000000000
        0.000000000000000
       -0.000000000000573
       -0.000000000000307
        0.000000000006211
        0.000000000003194
        0.000000000000031
        0.000000000000716
        0.000000000000195
        0.000000000000000
        0.000000000000000
       -0.000000000001789
        0.000000000025795
        0.000000000064659
       -0.000000000331371
       -0.000000000419972
       -0.000000000008286
        0.000000000002424
       -0.000000000000025
        0.000000000000243
       -0.000000000006263
        0.000000000116137
        0.000000000400725
       -0.000000001004190
       -0.000000000766643
       -0.000000000102751
        0.000000000007128
        0.000000000000158
       -0.000000000000069
       -0.000000000000277
        0.000000000027578
        0.000000000169635
       -0.000000000034369
       -0.000000000123758
       -0.000000000024332
        0.000000000002156
        0.000000000000000
        0.000000000000000
       -0.000000000000025
        0.000000000004276
        0.000000000019251
        0.000000000010243
       -0.000000000004740
        0.000000000000663
       -0.000000000000366
        0.000000000000000
        0.000000000000000
       -0.000000000000006
       -0.000000000000304
        0.000000000001533
        0.000000000000066
        0.000000000000785
       -0.000000000000177
        0.000000000000000
        0.000000000000000
        0.000000000000000
        0.000000000000000
        0.000000000000000
       -0.000000000000060
        0.000000000000335
        0.000000000000000
        0.000000000000000
        0.000000000000000
        0.000000000000000
        0.000000000000000
        0.000000000000000
        0.000000000000000
        0.000000000000060
       -0.000000000000398
       -0.000000000000034
        0.000000000000000
        0.000000000000000
        0.000000000000000
        0.000000000000000
        0.000000000000006
       -0.000000000000542
       -0.000000000001274
       -0.000000000000309
        0.000000000001864
       -0.000000000000388
       -0.000000000000010
        0.000000000000000
        0.000000000000000
       -0.000000000000261
       -0.000000000001329
       -0.000000000003313
       -0.000000000008944
       -0.000000000003583
        0.000000000003678
       -0.000000000000108
        0.000000000000000
        0.000000000000069
       -0.000000000005869
        0.000000000056870
       -0.000000000024274
       -0.000000000373821
       -0.000000000298285
        0.000000000056641
       -0.000000000002734
       -0.000000000000025
       -0.000000000000000
       -0.000000000000000
       -0.000000000000000
        0.000000000000000
       -0.000000000000000
       -0.000000000000000
        0.000000000000000
        0.000000000000000
       -0.000000000000000
       -0.000000000000069
        0.000000000005869
       -0.000000000056870
        0.000000000024274
        0.000000000373821
        0.000000000298285
       -0.000000000056641
        0.000000000002734
        0.000000000000025
        0.000000000000000
        0.000000000000261
        0.000000000001329
        0.000000000003313
        0.000000000008944
        0.000000000003583
       -0.000000000003678
        0.000000000000108
        0.000000000000000
        0.000000000000000
       -0.000000000000006
        0.000000000000542
        0.000000000001274
        0.000000000000309
       -0.000000000001864
        0.000000000000388
        0.000000000000010
        0.000000000000000
        0.000000000000000
        0.000000000000000
        0.000000000000000
       -0.000000000000060
        0.000000000000398
        0.000000000000034
        0.000000000000000
        0.000000000000000
        0.000000000000000
        0.000000000000000
        0.000000000000000
        0.000000000000000
        0.000000000000060
       -0.000000000000335
        0.000000000000000
        0.000000000000000
        0.000000000000000
        0.000000000000000
        0.000000000000000
        0.000000000000006
        0.000000000000304
       -0.000000000001533
       -0.000000000000066
       -0.000000000000785
        0.000000000000177
        0.000000000000000
        0.000000000000000
        0.000000000000000
        0.000000000000025
       -0.000000000004276
       -0.000000000019251
       -0.000000000010243
        0.000000000004740
       -0.000000000000663
        0.000000000000366
        0.000000000000000
        0.000000000000069
        0.000000000000277
       -0.000000000027578
       -0.000000000169635
        0.000000000034369
        0.000000000123758
        0.000000000024332
       -0.000000000002156
        0.000000000000000
       -0.000000000000243
        0.000000000006263
       -0.000000000116137
       -0.000000000400725
        0.000000001004190
        0.000000000766643
        0.000000000102751
       -0.000000000007128
       -0.000000000000158
        0.000000000000000
        0.000000000001789
       -0.000000000025795
       -0.000000000064659
        0.000000000331371
        0.000000000419972
        0.000000000008286
       -0.000000000002424
        0.000000000000025
        0.000000000000000
        0.000000000000573
        0.000000000000307
       -0.000000000006211
       -0.000000000003194
       -0.000000000000031
       -0.000000000000716
       -0.000000000000195
        0.000000000000000
        0.000000000000000
        0.000000000000000
        0.000000000000761
        0.000000000000419
       -0.000000000000791
       -0.000000000000613
       -0.000000000000473
        0.000000000000010
        0.000000000000000
        0.000000000000000
        0.000000000000000
        0.000000000000000
        0.000000000000000
       -0.000000000000066
        0.000000000000034
        0.000000000000000
        0.000000000000000
        0.000000000000000
        0.000000000000000
        0.000000000000000
        0.000000000000000
        0.000000000000000
        0.000000000000000
        0.000000000000000
        0.000000000000000
        0.000000000000000
        0.000000000000000
        0.000000000000000
        0.000000000000000
       -0.000000000000212
        0.000000000000915
       -0.000000000001379
        0.000000000000123
        0.000000000000000
        0.000000000000000
        0.000000000000000
        0.000000000000000
       -0.000000000000368
        0.000000000001636
       -0.000000000009691
        0.000000000003950
       -0.000000000000881
        0.000000000001089
        0.000000000000000
        0.000000000000000
        0.000000000000000
        0.000000000002971
       -0.000000000040596
       -0.000000000085338
        0.000000000063176
        0.000000000032450
       -0.000000000003319
        0.000000000000728
        0.000000000000000
        0.000000000000000
       -0.000000000000287
       -0.000000000008688
       -0.000000000120154
        0.000000000201157
        0.000000000138719
        0.000000000014223
       -0.000000000001958
        0.000000000000000
        0.000000000000000
        0.000000000000455
        0.000000000001239
       -0.000000000024844
       -0.000000000044643
       -0.000000000012526
        0.000000000026511
       -0.000000000001588
        0.000000000000000
        0.000000000000000
        0.000000000000000
        0.000000000002814
       -0.000000000001198
        0.000000000001585
       -0.000000000004409
        0.000000000002123
       -0.000000000000546
        0.000000000000000
        0.000000000000000
        0.000000000000000
        0.000000000000000
        0.000000000001060
       -0.000000000000865
        0.000000000000470
       -0.000000000000702
        0.000000000000000
        0.000000000000000
        0.000000000000000
        0.000000000000000
        0.000000000000000
        0.000000000000000
        0.000000000000000
        0.000000000000000
        0.000000000000000
        0.000000000000000
        0.000000000000000
        0.000000000000000
        0.000000000000000
        0.000000000000000
        0.000000000000000
        0.000000000000000
        0.000000000000000
        0.000000000000000
        0.000000000000000
        0.000000000000000
        0.000000000000000
        0.000000000000000
        0.000000000000000
       -0.000000000000159
       -0.000000000000514
        0.000000000000000
        0.000000000000000
        0.000000000000000
        0.000000000000000
        0.000000000000000
        0.000000000000000
       -0.000000000000446
        0.000000000000912
       -0.000000000001163
        0.000000000000053
        0.000000000000000
        0.000000000000000
        0.000000000000000
        0.000000000000000
       -0.000000000000559
        0.000000000002924
        0.000000000000820
       -0.000000000003682
       -0.000000000002416
        0.000000000000346
        0.000000000000000
        0.000000000000000
        0.000000000000000
       -0.000000000000305
       -0.000000000000833
        0.000000000006634
       -0.000000000011287
       -0.000000000007034
       -0.000000000001857
       -0.000000000000190
        0.000000000000000
        0.000000000000000
        0.000000000000000
        0.000000000001104
        0.000000000000083
        0.000000000003283
       -0.000000000002978
       -0.000000000000839
       -0.000000000000246
        0.000000000000000
        0.000000000000000
        0.000000000000000
        0.000000000000000
        0.000000000001397
       -0.000000000001527
        0.000000000001173
       -0.000000000001262
        0.000000000000000
        0.000000000000000
        0.000000000000000
        0.000000000000000
        0.000000000000000
        0.000000000000000
        0.000000000000019
       -0.000000000000646
        0.000000000000000
        0.000000000000000
        0.000000000000000
        0.000000000000000
        0.000000000000000
        0.000000000000000
        0.000000000000000
        0.000000000000000
        0.000000000000000
        0.000000000000000
        0.000000000000000
        0.000000000000000
        0.000000000000000
        0.000000000000000
        0.000000000000000
        0.000000000000000
        0.000000000000000
        0.000000000000000
        0.000000000000000
        0.000000000000000
        0.000000000000000
        0.000000000000000
        0.000000000000000
        0.000000000000000
        0.000000000000000
        0.000000000000000
        0.000000000000000
        0.000000000000000
        0.000000000000000
        0.000000000000000
        0.000000000000000
        0.000000000000000
        0.000000000000000
        0.000000000000000
        0.000000000000000
        0.000000000000000
        0.000000000000000
        0.000000000000000
        0.000000000000000
        0.000000000000000
        0.000000000000000
        0.000000000000000
        0.000000000000639
       -0.000000000000365
        0.000000000000000
        0.000000000000000
        0.000000000000000
        0.000000000000000
        0.000000000000000
        0.000000000000000
        0.000000000000000
        0.000000000000077
        0.000000000001132
       -0.000000000000147
        0.000000000000000
        0.000000000000000
        0.000000000000000
        0.000000000000000
        0.000000000000000
        0.000000000000000
        0.000000000000000
        0.000000000000294
        0.000000000000170
        0.000000000000000
        0.000000000000000
        0.000000000000000
        0.000000000000000
        0.000000000000000
        0.000000000000000
        0.000000000000000
        0.000000000000000
        0.000000000000000
        0.000000000000000
        0.000000000000000
        0.000000000000000
        0.000000000000000
        0.000000000000000
        0.000000000000000
        0.000000000000000
        0.000000000000000
        0.000000000000000
        0.000000000000000
        0.000000000000000
        0.000000000000000
        0.000000000000000
        0.000000000000000
        0.000000000000000
        0.000000000000000
        0.000000000000000
        0.000000000000000
        0.000000000000000
        0.000000000000000
        0.000000000000000
END_DATAGRID_3D
END_BLOCK_DATAGRID_3D
