ATOMS
         C    7.558905    7.558905    7.558905
         H    8.755769    8.755769    8.755769
         H    6.362040    6.362040    8.755769
         H    8.755769    6.362040    6.362040
         H    6.362040    8.755769    6.362040
BEGIN_BLOCK_DATAGRID_3D
units: coords = b, function = sqrt(b^-3)
BEGIN_DATAGRID_3D_function
      9      9      9
0.0 0.0 0.0
   15.117809    0.000000    0.000000
    0.000000   15.117809    0.000000
    0.000000    0.000000   15.117809
        0.000000000000000
        0.000000000000000
        0.000000000000000
        0.000000000000000
        0.000000000000000
        0.000000000000000
        0.000000000000000
        0.000000000000000
        0.000000000000000
        0.000000000000000
        0.000000000000000
        0.000000000000000
        0.000000000000000
        0.000000000000000
        0.000000000000000
        0.000000000000000
        0.000000000000000
        0.000000000000000
        0.000000000000000
        0.000000000000000
        0.000000000000000
        0.000000000000000
        0.000000000000000
        0.000000000000000
        0.000000000000000
        0.000000000000000
        0.000000000000000
        0.000000000000000
        0.000000000000000
        0.000000000000000
        0.000000000000000
       -0.000060630029210
       -0.000058753531278
        0.000000000000000
        0.000000000000000
        0.000000000000000
        0.000000000000000
        0.000000000000000
        0.000000000000000
       -0.000036215946998
       -0.000070696866837
       -0.000058670561494
        0.000000000000000
        0.000000000000000
        0.000000000000000
        0.000000000000000
        0.000000000000000
        0.000000000000000
       -0.000022184833352
       -0.000034217668255
        0.000000000000000
        0.000000000000000
        0.000000000000000
        0.000000000000000
        0.000000000000000
        0.000000000000000
        0.000000000000000
        0.000000000000000
        0.000000000000000
        0.000000000000000
        0.000000000000000
        0.000000000000000
        0.000000000000000
        0.000000000000000
        0.000000000000000
        0.000000000000000
        0.000000000000000
        0.000000000000000
        0.000000000000000
        0.000000000000000
        0.000000000000000
        0.000000000000000
        0.000000000000000
        0.000000000000000
        0.000000000000000
        0.000000000000000
        0.000000000000000
        0.000000000000000
        0.000000000000000
        0.000000000000000
        0.000000000000000
        0.000000000000000
        0.000000000000000
        0.000000000000000
        0.000000000000000
        0.000000000000000
        0.000000000000000
        0.000000000000000
        0.000000000000000
        0.000000000000000
        0.000000000000000
        0.000000000000000
        0.000000000000000
        0.000000000000000
       -0.000063518171167
       -0.000063912543530
        0.000000000000000
        0.000000000000000
        0.000000000000000
        0.000000000000000
        0.000000000000000
        0.000000000000000
       -0.000108158372192
       -0.000214598640348
       -0.000214869415693
       -0.000108843394064
        0.000000000000000
        0.000000000000000
        0.000000000000000
        0.000000000000000
       -0.000057847537131
       -0.000213175438470
       -0.000407653228078
       -0.000398472035679
       -0.000207674872777
       -0.000059980347051
        0.000000000000000
        0.000000000000000
       -0.000005494852616
       -0.000056273684664
       -0.000214486382266
       -0.000410246797131
       -0.000386975477150
       -0.000196833897881
       -0.000057128559739
        0.000000000000000
        0.000000000000000
        0.000001248758205
       -0.000015191387052
       -0.000090974930577
       -0.000193509934840
       -0.000184267459720
       -0.000091721661598
        0.000000000000000
        0.000000000000000
        0.000000000000000
        0.000000000000000
        0.000005365470971
       -0.000007689122605
       -0.000038022204610
       -0.000041177480317
        0.000000000000000
        0.000000000000000
        0.000000000000000
        0.000000000000000
        0.000000000000000
        0.000000000000000
        0.000005378888278
        0.000001162891231
        0.000000000000000
        0.000000000000000
        0.000000000000000
        0.000000000000000
        0.000000000000000
        0.000000000000000
        0.000000000000000
        0.000000000000000
        0.000000000000000
        0.000000000000000
        0.000000000000000
        0.000000000000000
        0.000000000000000
        0.000000000000000
        0.000000000000000
        0.000000000000000
        0.000000000000000
        0.000000000000000
        0.000000000000000
        0.000000000000000
        0.000000000000000
        0.000000000000000
        0.000000000000000
        0.000000000000000
        0.000000000000000
       -0.000104759723491
       -0.000209726381545
       -0.000211243304831
       -0.000107312582485
        0.000000000000000
        0.000000000000000
        0.000000000000000
        0.000000000000000
       -0.000092666458543
       -0.000379434662465
       -0.000789029142618
       -0.000803692425714
       -0.000392681776084
       -0.000103737784728
        0.000000000000000
        0.000000000000000
       -0.000012537129092
       -0.000160010561732
       -0.000750467629066
       -0.001810569126431
       -0.001823863689697
       -0.000770623069639
       -0.000195472021369
        0.000000000000000
        0.000000000000000
        0.000008523246890
       -0.000091025518427
       -0.000690876187078
       -0.001878562840832
       -0.001675169655211
       -0.000699767365718
       -0.000180265267652
        0.000000000000000
        0.000000000000000
        0.000032902424261
        0.000061981031196
       -0.000069836185981
       -0.000553768929181
       -0.000589602746589
       -0.000292680078203
       -0.000080064507940
        0.000000000000000
        0.000000000000000
        0.000025613103857
        0.000074197150037
        0.000096377346355
        0.000000348078533
       -0.000072262551629
       -0.000051139314642
        0.000000000000000
        0.000000000000000
        0.000000000000000
        0.000000000000000
        0.000029386512080
        0.000049409301953
        0.000038966470447
        0.000012713437264
        0.000000000000000
        0.000000000000000
        0.000000000000000
        0.000000000000000
        0.000000000000000
        0.000000000000000
        0.000000000000000
        0.000000000000000
        0.000000000000000
        0.000000000000000
        0.000000000000000
        0.000000000000000
        0.000000000000000
        0.000000000000000
        0.000000000000000
        0.000000000000000
       -0.000056391016478
       -0.000055409104058
        0.000000000000000
        0.000000000000000
        0.000000000000000
        0.000000000000000
        0.000000000000000
       -0.000050395935411
       -0.000195582050901
       -0.000384031421889
       -0.000381759548479
       -0.000200956773175
       -0.000058286474719
        0.000000000000000
        0.000000000000000
       -0.000008485340782
       -0.000142295225052
       -0.000704041958062
       -0.001743330295388
       -0.001782149138846
       -0.000756570193094
       -0.000192380981927
        0.000000000000000
        0.000000000000000
        0.000021598241356
       -0.000130515621331
       -0.001416785385199
       -0.005110806883355
       -0.005416936387313
       -0.001682757246442
       -0.000341954708596
       -0.000047452446001
        0.000020164771141
        0.000099935280180
        0.000204755220093
       -0.000737500404917
       -0.004983450061463
       -0.004468791998792
       -0.001445119095272
       -0.000306336521726
       -0.000044238620694
        0.000022187035574
        0.000130881050853
        0.000484216706636
        0.001027103704746
       -0.000089002725615
       -0.000779153699542
       -0.000429495298564
       -0.000123739719402
        0.000000000000000
        0.000000000000000
        0.000081237368630
        0.000282494425607
        0.000587020353180
        0.000508700486300
        0.000146549797191
       -0.000010794807150
       -0.000015367727029
        0.000000000000000
        0.000000000000000
        0.000027736033396
        0.000090226981912
        0.000172187650780
        0.000179748347024
        0.000094703566839
        0.000026847633488
        0.000000000000000
        0.000000000000000
        0.000000000000000
        0.000000000000000
        0.000000000000000
        0.000030478131891
        0.000032764696870
        0.000000000000000
        0.000000000000000
        0.000000000000000
        0.000000000000000
        0.000000000000000
        0.000000000000000
        0.000000000000000
       -0.000030015823654
       -0.000062281286143
       -0.000053582220540
        0.000000000000000
        0.000000000000000
        0.000000000000000
        0.000000000000000
       -0.000000823011508
       -0.000038657798966
       -0.000175320592395
       -0.000361412022173
       -0.000354592306058
       -0.000184396822542
       -0.000054388082724
        0.000000000000000
        0.000000000000000
        0.000021261541292
       -0.000034723839724
       -0.000533337227701
       -0.001654943275080
       -0.001551323062510
       -0.000662252960712
       -0.000172704326688
        0.000000000000000
        0.000022122964922
        0.000115466007699
        0.000295014676948
       -0.000384070986720
       -0.004390231954817
       -0.004203403656654
       -0.001388530232632
       -0.000297585980754
       -0.000043392283228
        0.000041350364178
        0.000240372198075
        0.001102619760909
        0.002930146518643
        0.000000020513161
       -0.002940361218941
       -0.001110327597040
       -0.000242898517174
       -0.000041930529764
        0.000033353103289
        0.000236768401103
        0.001092729621825
        0.003441430601928
        0.004390240418927
        0.001135384244992
       -0.000008916446983
       -0.000058349829613
       -0.000012862209878
        0.000000000000000
        0.000126754554272
        0.000497638772605
        0.001259269001610
        0.001654944884526
        0.000822859745211
        0.000196101303409
        0.000023133027564
        0.000000000000000
        0.000000000000000
        0.000037358315058
        0.000138885059380
        0.000295433990494
        0.000361412264234
        0.000234060037475
        0.000083468813874
        0.000017468906493
        0.000000000000000
        0.000000000000000
        0.000000000000000
        0.000000000000000
        0.000043907492342
        0.000062281309825
        0.000039642125889
        0.000000000000000
        0.000000000000000
        0.000000000000000
        0.000000000000000
        0.000000000000000
        0.000000000000000
       -0.000015907246132
       -0.000027166247169
        0.000000000000000
        0.000000000000000
        0.000000000000000
        0.000000000000000
        0.000000000000000
        0.000006489518705
        0.000004494942981
       -0.000049531699781
       -0.000145570743624
       -0.000154523049078
       -0.000081372865957
        0.000000000000000
        0.000000000000000
        0.000000000000000
        0.000048953451492
        0.000131743671257
        0.000113260668026
       -0.000339562629304
       -0.000476359878767
       -0.000256498905433
       -0.000073120118943
        0.000000000000000
        0.000025116415940
        0.000155583355267
        0.000625497149221
        0.001547416345255
        0.000529970243688
       -0.000517165618812
       -0.000362724223473
       -0.000111608069037
        0.000000000000000
        0.000035311297070
        0.000252299128623
        0.001182989078681
        0.003794860020125
        0.004983458525573
        0.001400772587130
        0.000047672415657
       -0.000049599288640
       -0.000012015872411
        0.000000000000000
        0.000211302460901
        0.000917234415191
        0.002708600892055
        0.004669847859054
        0.002833438477429
        0.000565285096010
        0.000052479898184
       -0.000000514748876
        0.000000000000000
        0.000096053127081
        0.000407733070087
        0.001032706173466
        0.001574194629677
        0.001079425656128
        0.000339435610382
        0.000060822248286
        0.000000000000000
        0.000000000000000
        0.000000000000000
        0.000104542654480
        0.000255193697261
        0.000349854189057
        0.000258675786865
        0.000105572579573
        0.000023701314728
        0.000000000000000
        0.000000000000000
        0.000000000000000
        0.000000000000000
        0.000000000000000
        0.000050792611487
        0.000040787409806
        0.000000000000000
        0.000000000000000
        0.000000000000000
        0.000000000000000
        0.000000000000000
        0.000000000000000
        0.000000000000000
        0.000000000000000
        0.000000000000000
        0.000000000000000
        0.000000000000000
        0.000000000000000
        0.000000000000000
        0.000000000000000
        0.000016073080220
        0.000015101236710
       -0.000012823086453
       -0.000026766480190
        0.000000000000000
        0.000000000000000
        0.000000000000000
        0.000000000000000
        0.000034784467003
        0.000111784153610
        0.000180241663337
        0.000094230789360
       -0.000018335930293
       -0.000033943886778
        0.000000000000000
        0.000000000000000
        0.000000000000000
        0.000097288395862
        0.000352257065668
        0.000770117207187
        0.000722906786177
        0.000259792665013
        0.000025386365620
       -0.000008423338032
        0.000000000000000
        0.000000000000000
        0.000139492848673
        0.000553940451308
        0.001416807960988
        0.001878564450278
        0.000946706337912
        0.000233615708415
        0.000030693968527
        0.000000000000000
        0.000000000000000
        0.000100104915391
        0.000425448406767
        0.001079131844470
        0.001641433460720
        0.001121140206980
        0.000353488486927
        0.000063913287728
        0.000000000000000
        0.000000000000000
        0.000000000000000
        0.000177159013853
        0.000469718439260
        0.000694451033978
        0.000526108545411
        0.000205400065112
        0.000042705622239
        0.000000000000000
        0.000000000000000
        0.000000000000000
        0.000000000000000
        0.000118764013790
        0.000183583150167
        0.000146507728340
        0.000061535183607
        0.000000000000000
        0.000000000000000
        0.000000000000000
        0.000000000000000
        0.000000000000000
        0.000000000000000
        0.000000000000000
        0.000000000000000
        0.000000000000000
        0.000000000000000
        0.000000000000000
        0.000000000000000
        0.000000000000000
        0.000000000000000
        0.000000000000000
        0.000000000000000
        0.000000000000000
        0.000000000000000
        0.000000000000000
        0.000000000000000
        0.000000000000000
        0.000000000000000
        0.000000000000000
        0.000012320140647
        0.000008585503099
        0.000000000000000
        0.000000000000000
        0.000000000000000
        0.000000000000000
        0.000000000000000
        0.000000000000000
        0.000040094121329
        0.000072199661268
        0.000064165588604
        0.000027124437391
        0.000000000000000
        0.000000000000000
        0.000000000000000
        0.000000000000000
        0.000032976793896
        0.000109913311946
        0.000213630881576
        0.000227687538241
        0.000124447977481
        0.000037196429128
        0.000000000000000
        0.000000000000000
        0.000000000000000
        0.000042030156166
        0.000156500945077
        0.000334599780365
        0.000410247039193
        0.000266443208567
        0.000095905889213
        0.000020209383507
        0.000000000000000
        0.000000000000000
        0.000000000000000
        0.000111994256200
        0.000272787084829
        0.000373475995245
        0.000275388274065
        0.000112290679175
        0.000025395187060
        0.000000000000000
        0.000000000000000
        0.000000000000000
        0.000000000000000
        0.000122162662491
        0.000188455408970
        0.000150133839202
        0.000063065995186
        0.000000000000000
        0.000000000000000
        0.000000000000000
        0.000000000000000
        0.000000000000000
        0.000000000000000
        0.000053769810986
        0.000046151798939
        0.000000000000000
        0.000000000000000
        0.000000000000000
        0.000000000000000
        0.000000000000000
        0.000000000000000
        0.000000000000000
        0.000000000000000
        0.000000000000000
        0.000000000000000
        0.000000000000000
        0.000000000000000
        0.000000000000000
        0.000000000000000
        0.000000000000000
        0.000000000000000
        0.000000000000000
        0.000000000000000
        0.000000000000000
        0.000000000000000
        0.000000000000000
        0.000000000000000
        0.000000000000000
        0.000000000000000
        0.000000000000000
        0.000000000000000
        0.000000000000000
        0.000000000000000
        0.000000000000000
        0.000000000000000
        0.000000000000000
        0.000000000000000
        0.000000000000000
        0.000000000000000
        0.000000000000000
        0.000000000000000
        0.000000000000000
        0.000000000000000
        0.000000000000000
        0.000000000000000
        0.000000000000000
        0.000000000000000
        0.000036755719111
        0.000039816117956
        0.000000000000000
        0.000000000000000
        0.000000000000000
        0.000000000000000
        0.000000000000000
        0.000000000000000
        0.000000000000000
        0.000050107615686
        0.000070696890519
        0.000044730466843
        0.000000000000000
        0.000000000000000
        0.000000000000000
        0.000000000000000
        0.000000000000000
        0.000000000000000
        0.000000000000000
        0.000055031624219
        0.000044131837025
        0.000000000000000
        0.000000000000000
        0.000000000000000
        0.000000000000000
        0.000000000000000
        0.000000000000000
        0.000000000000000
        0.000000000000000
        0.000000000000000
        0.000000000000000
        0.000000000000000
        0.000000000000000
        0.000000000000000
        0.000000000000000
        0.000000000000000
        0.000000000000000
        0.000000000000000
        0.000000000000000
        0.000000000000000
        0.000000000000000
        0.000000000000000
        0.000000000000000
        0.000000000000000
        0.000000000000000
        0.000000000000000
        0.000000000000000
        0.000000000000000
        0.000000000000000
        0.000000000000000
        0.000000000000000
END_DATAGRID_3D
END_BLOCK_DATAGRID_3D
