ATOMS
         C    7.558905    7.558905    7.558905
         H    8.755769    8.755769    8.755769
         H    6.362040    6.362040    8.755769
         H    8.755769    6.362040    6.362040
         H    6.362040    8.755769    6.362040
BEGIN_BLOCK_DATAGRID_3D
units: coords = b, function = sqrt(b^-3)
BEGIN_DATAGRID_3D_function
      9      9      9
0.0 0.0 0.0
   15.117809    0.000000    0.000000
    0.000000   15.117809    0.000000
    0.000000    0.000000   15.117809
        0.000000000000000
        0.000000000000000
        0.000000000000000
        0.000000000000000
        0.000000000000000
        0.000000000000000
        0.000000000000000
        0.000000000000000
        0.000000000000000
        0.000000000000000
        0.000000000000000
        0.000000000000000
        0.000000000000000
        0.000000000000000
        0.000000000000000
        0.000000000000000
        0.000000000000000
        0.000000000000000
        0.000000000000000
        0.000000000000000
        0.000000000000000
        0.000000000000000
        0.000000000000000
        0.000000000000000
        0.000000000000000
        0.000000000000000
        0.000000000000000
        0.000000000000000
        0.000000000000000
        0.000000000000000
        0.000000000000000
       -0.001250143380496
       -0.001209343262895
        0.000000000000000
        0.000000000000000
        0.000000000000000
        0.000000000000000
        0.000000000000000
        0.000000000000000
       -0.000748050433141
       -0.001457713348223
       -0.001207635945972
        0.000000000000000
        0.000000000000000
        0.000000000000000
        0.000000000000000
        0.000000000000000
        0.000000000000000
       -0.000458233503384
       -0.000705543810873
        0.000000000000000
        0.000000000000000
        0.000000000000000
        0.000000000000000
        0.000000000000000
        0.000000000000000
        0.000000000000000
        0.000000000000000
        0.000000000000000
        0.000000000000000
        0.000000000000000
        0.000000000000000
        0.000000000000000
        0.000000000000000
        0.000000000000000
        0.000000000000000
        0.000000000000000
        0.000000000000000
        0.000000000000000
        0.000000000000000
        0.000000000000000
        0.000000000000000
        0.000000000000000
        0.000000000000000
        0.000000000000000
        0.000000000000000
        0.000000000000000
        0.000000000000000
        0.000000000000000
        0.000000000000000
        0.000000000000000
        0.000000000000000
        0.000000000000000
        0.000000000000000
        0.000000000000000
        0.000000000000000
        0.000000000000000
        0.000000000000000
        0.000000000000000
        0.000000000000000
        0.000000000000000
        0.000000000000000
        0.000000000000000
        0.000000000000000
       -0.001309697688286
       -0.001315536912104
        0.000000000000000
        0.000000000000000
        0.000000000000000
        0.000000000000000
        0.000000000000000
        0.000000000000000
       -0.002234039698063
       -0.004424863982816
       -0.004422724806934
       -0.002236465857809
        0.000000000000000
        0.000000000000000
        0.000000000000000
        0.000000000000000
       -0.001196947839979
       -0.004403202050772
       -0.008405499769082
       -0.008201882347037
       -0.004267202542774
       -0.001230310187817
        0.000000000000000
        0.000000000000000
       -0.000113896397466
       -0.001164384312227
       -0.004430278552006
       -0.008458977270250
       -0.007965237908985
       -0.004044449531598
       -0.001171814697505
        0.000000000000000
        0.000000000000000
        0.000025883905602
       -0.000314331164118
       -0.001879113380255
       -0.003990027797870
       -0.003792836204878
       -0.001884652267123
        0.000000000000000
        0.000000000000000
        0.000000000000000
        0.000000000000000
        0.000111019060652
       -0.000158820076836
       -0.000783987789122
       -0.000847568151355
        0.000000000000000
        0.000000000000000
        0.000000000000000
        0.000000000000000
        0.000000000000000
        0.000000000000000
        0.000111102556500
        0.000023977829601
        0.000000000000000
        0.000000000000000
        0.000000000000000
        0.000000000000000
        0.000000000000000
        0.000000000000000
        0.000000000000000
        0.000000000000000
        0.000000000000000
        0.000000000000000
        0.000000000000000
        0.000000000000000
        0.000000000000000
        0.000000000000000
        0.000000000000000
        0.000000000000000
        0.000000000000000
        0.000000000000000
        0.000000000000000
        0.000000000000000
        0.000000000000000
        0.000000000000000
        0.000000000000000
        0.000000000000000
        0.000000000000000
       -0.002163839884254
       -0.004324401747583
       -0.004348087546010
       -0.002205011387130
        0.000000000000000
        0.000000000000000
        0.000000000000000
        0.000000000000000
       -0.001917400668204
       -0.007837336043232
       -0.016269180153222
       -0.016542662128937
       -0.008068633298642
       -0.002127856162239
        0.000000000000000
        0.000000000000000
       -0.000259867061952
       -0.003310853348570
       -0.015501124329296
       -0.037332562069518
       -0.037541169192645
       -0.015834397935733
       -0.004009491388631
        0.000000000000000
        0.000000000000000
        0.000176667807157
       -0.001883450493204
       -0.014270243698414
       -0.038734536656717
       -0.034480556866979
       -0.014378481184900
       -0.003697574925171
        0.000000000000000
        0.000000000000000
        0.000681993169292
        0.001282479728234
       -0.001442487429308
       -0.011418295270066
       -0.012135982604336
       -0.006013850759654
       -0.001642270307244
        0.000000000000000
        0.000000000000000
        0.000530903289983
        0.001535248050242
        0.001990703509214
        0.000007177696879
       -0.001487402237929
       -0.001050784973256
        0.000000000000000
        0.000000000000000
        0.000000000000000
        0.000000000000000
        0.000608050746804
        0.001020563025531
        0.000803459070466
        0.000261683490537
        0.000000000000000
        0.000000000000000
        0.000000000000000
        0.000000000000000
        0.000000000000000
        0.000000000000000
        0.000000000000000
        0.000000000000000
        0.000000000000000
        0.000000000000000
        0.000000000000000
        0.000000000000000
        0.000000000000000
        0.000000000000000
        0.000000000000000
        0.000000000000000
       -0.001162738298211
       -0.001140503818021
        0.000000000000000
        0.000000000000000
        0.000000000000000
        0.000000000000000
        0.000000000000000
       -0.001042763483794
       -0.004039805330122
       -0.007918436083697
       -0.007857883873853
       -0.004129162357793
       -0.001195565670088
        0.000000000000000
        0.000000000000000
       -0.000175882482420
       -0.002944296775056
       -0.014542188399630
       -0.035946148497923
       -0.036682545168687
       -0.015545646190629
       -0.003946088439794
        0.000000000000000
        0.000000000000000
        0.000447685240222
       -0.002700561672342
       -0.029264079075872
       -0.105380947409606
       -0.111498550814147
       -0.034576539179207
       -0.007014112713043
       -0.000971652400562
        0.000418705447585
        0.002071437605645
        0.004236672965106
       -0.015233241133293
       -0.102755031335295
       -0.091982675874709
       -0.029693639087906
       -0.006283519033198
       -0.000905844407725
        0.000460695256148
        0.002712877216770
        0.010019141403830
        0.021215111791900
       -0.001835168370837
       -0.016037577322020
       -0.008825063940937
       -0.002538130286992
        0.000000000000000
        0.000000000000000
        0.001683869716850
        0.005845225638401
        0.012125076205195
        0.010489018727385
        0.003016485422502
       -0.000221805222898
       -0.000315219021677
        0.000000000000000
        0.000000000000000
        0.000574907573016
        0.001866928887859
        0.003556588211029
        0.003706274469302
        0.001949314617657
        0.000551651271075
        0.000000000000000
        0.000000000000000
        0.000000000000000
        0.000000000000000
        0.000000000000000
        0.000629533652322
        0.000675584195392
        0.000000000000000
        0.000000000000000
        0.000000000000000
        0.000000000000000
        0.000000000000000
        0.000000000000000
        0.000000000000000
       -0.000619985204468
       -0.001284190719405
       -0.001102900890096
        0.000000000000000
        0.000000000000000
        0.000000000000000
        0.000000000000000
       -0.000017059324886
       -0.000799885520327
       -0.003621297730514
       -0.007452041315207
       -0.007298684950295
       -0.003788898601419
       -0.001115602297685
        0.000000000000000
        0.000000000000000
        0.000440704537983
       -0.000718486244049
       -0.011016231169240
       -0.034123671488027
       -0.031931382633741
       -0.013607653552480
       -0.003542486110529
        0.000000000000000
        0.000459365647390
        0.002393355333734
        0.006104272392563
       -0.007933060949295
       -0.090523318547219
       -0.086520095534713
       -0.028530878101703
       -0.006104029533253
       -0.000888514434036
        0.000858604468113
        0.004982389801187
        0.022814765643005
        0.060522994662831
        0.000000135347516
       -0.060522480679771
       -0.022814523765143
       -0.004982285055878
       -0.000858581700019
        0.000692549083232
        0.004907685141208
        0.022610159392209
        0.071083678738672
        0.090523458320993
        0.023370025824694
       -0.000183215920924
       -0.001196861533727
       -0.000263370334211
        0.000000000000000
        0.002627339791820
        0.010296873340557
        0.026010562091652
        0.034123703209455
        0.016937188197725
        0.004029395349991
        0.000474502505400
        0.000000000000000
        0.000000000000000
        0.000774356501495
        0.002873736465529
        0.006102274939033
        0.007452046284602
        0.004817731447422
        0.001715077614079
        0.000358320086124
        0.000000000000000
        0.000000000000000
        0.000000000000000
        0.000000000000000
        0.000906921229759
        0.001284191432797
        0.000815967036785
        0.000000000000000
        0.000000000000000
        0.000000000000000
        0.000000000000000
        0.000000000000000
        0.000000000000000
       -0.000328568340281
       -0.000560148620430
        0.000000000000000
        0.000000000000000
        0.000000000000000
        0.000000000000000
        0.000000000000000
        0.000134513423084
        0.000093007969250
       -0.001023090615132
       -0.003001558099912
       -0.003180597500332
       -0.001672010351735
        0.000000000000000
        0.000000000000000
        0.000000000000000
        0.001014695335693
        0.002725971725811
        0.002339431233847
       -0.007001523502665
       -0.009805068627996
       -0.005270417608624
       -0.001499828093929
        0.000000000000000
        0.000521521151241
        0.003224902843730
        0.012942436085903
        0.031962314704067
        0.010927590567608
       -0.010644987972873
       -0.007453085189498
       -0.002289287684137
        0.000000000000000
        0.000733209283038
        0.005229602869298
        0.024477758819666
        0.078383858922669
        0.102755171109068
        0.028832606164689
        0.000979545065278
       -0.001017372033782
       -0.000246040360521
        0.000000000000000
        0.004379827949717
        0.018978923433000
        0.055946892548359
        0.096288700654185
        0.058321575950579
        0.011615228278419
        0.001076455564788
       -0.000010538507088
        0.000000000000000
        0.001990965010855
        0.008436596653565
        0.021330840403482
        0.032458697934341
        0.022218163565725
        0.006974562857382
        0.001247576889372
        0.000000000000000
        0.000000000000000
        0.000000000000000
        0.002163137696878
        0.005271101486203
        0.007213727248255
        0.005324409079621
        0.002169253644893
        0.000486158708751
        0.000000000000000
        0.000000000000000
        0.000000000000000
        0.000000000000000
        0.000000000000000
        0.001047303471924
        0.000839540683825
        0.000000000000000
        0.000000000000000
        0.000000000000000
        0.000000000000000
        0.000000000000000
        0.000000000000000
        0.000000000000000
        0.000000000000000
        0.000000000000000
        0.000000000000000
        0.000000000000000
        0.000000000000000
        0.000000000000000
        0.000000000000000
        0.000332575396827
        0.000311921591575
       -0.000264400914897
       -0.000550941911302
        0.000000000000000
        0.000000000000000
        0.000000000000000
        0.000000000000000
        0.000721005385343
        0.002312978364802
        0.003722946171078
        0.001942967733315
       -0.000377413343315
       -0.000697462017878
        0.000000000000000
        0.000000000000000
        0.000000000000000
        0.002016571883251
        0.007288717635978
        0.015906994868350
        0.014905790494786
        0.005347399398842
        0.000521627928132
       -0.000172776808363
        0.000000000000000
        0.000000000000000
        0.002891376522646
        0.011461837589712
        0.029264574620825
        0.038734568378144
        0.019486362430963
        0.004800222982411
        0.000629591320042
        0.000000000000000
        0.000000000000000
        0.002074949590387
        0.008803153227079
        0.022289776333148
        0.033845111505936
        0.023076787589683
        0.007263314602485
        0.001310979838210
        0.000000000000000
        0.000000000000000
        0.000000000000000
        0.003665671083563
        0.009702172985336
        0.014319050244682
        0.010829062239025
        0.004220460238533
        0.000875971979073
        0.000000000000000
        0.000000000000000
        0.000000000000000
        0.000000000000000
        0.002453101299346
        0.003785347041087
        0.003015614661869
        0.001264397709065
        0.000000000000000
        0.000000000000000
        0.000000000000000
        0.000000000000000
        0.000000000000000
        0.000000000000000
        0.000000000000000
        0.000000000000000
        0.000000000000000
        0.000000000000000
        0.000000000000000
        0.000000000000000
        0.000000000000000
        0.000000000000000
        0.000000000000000
        0.000000000000000
        0.000000000000000
        0.000000000000000
        0.000000000000000
        0.000000000000000
        0.000000000000000
        0.000000000000000
        0.000000000000000
        0.000254476289173
        0.000177027077954
        0.000000000000000
        0.000000000000000
        0.000000000000000
        0.000000000000000
        0.000000000000000
        0.000000000000000
        0.000829607082979
        0.001491304693942
        0.001323045944690
        0.000558309730591
        0.000000000000000
        0.000000000000000
        0.000000000000000
        0.000000000000000
        0.000683537090498
        0.002274268021226
        0.004412610976151
        0.004694744167260
        0.002561553322203
        0.000764293186463
        0.000000000000000
        0.000000000000000
        0.000000000000000
        0.000871193574076
        0.003238235257430
        0.006911255760526
        0.008458982239645
        0.005484284406111
        0.001970628544258
        0.000414532485944
        0.000000000000000
        0.000000000000000
        0.000000000000000
        0.002317322053062
        0.005634498206853
        0.007700790933639
        0.005668407552805
        0.002307293829875
        0.000520903226479
        0.000000000000000
        0.000000000000000
        0.000000000000000
        0.000000000000000
        0.002523301113155
        0.003885809276320
        0.003090251922792
        0.001295852179744
        0.000000000000000
        0.000000000000000
        0.000000000000000
        0.000000000000000
        0.000000000000000
        0.000000000000000
        0.001108693689931
        0.000949960561797
        0.000000000000000
        0.000000000000000
        0.000000000000000
        0.000000000000000
        0.000000000000000
        0.000000000000000
        0.000000000000000
        0.000000000000000
        0.000000000000000
        0.000000000000000
        0.000000000000000
        0.000000000000000
        0.000000000000000
        0.000000000000000
        0.000000000000000
        0.000000000000000
        0.000000000000000
        0.000000000000000
        0.000000000000000
        0.000000000000000
        0.000000000000000
        0.000000000000000
        0.000000000000000
        0.000000000000000
        0.000000000000000
        0.000000000000000
        0.000000000000000
        0.000000000000000
        0.000000000000000
        0.000000000000000
        0.000000000000000
        0.000000000000000
        0.000000000000000
        0.000000000000000
        0.000000000000000
        0.000000000000000
        0.000000000000000
        0.000000000000000
        0.000000000000000
        0.000000000000000
        0.000000000000000
        0.000000000000000
        0.000759198815425
        0.000820979385836
        0.000000000000000
        0.000000000000000
        0.000000000000000
        0.000000000000000
        0.000000000000000
        0.000000000000000
        0.000000000000000
        0.001034986458432
        0.001457714061615
        0.000920702092661
        0.000000000000000
        0.000000000000000
        0.000000000000000
        0.000000000000000
        0.000000000000000
        0.000000000000000
        0.000000000000000
        0.001134708554209
        0.000908380128699
        0.000000000000000
        0.000000000000000
        0.000000000000000
        0.000000000000000
        0.000000000000000
        0.000000000000000
        0.000000000000000
        0.000000000000000
        0.000000000000000
        0.000000000000000
        0.000000000000000
        0.000000000000000
        0.000000000000000
        0.000000000000000
        0.000000000000000
        0.000000000000000
        0.000000000000000
        0.000000000000000
        0.000000000000000
        0.000000000000000
        0.000000000000000
        0.000000000000000
        0.000000000000000
        0.000000000000000
        0.000000000000000
        0.000000000000000
        0.000000000000000
        0.000000000000000
        0.000000000000000
        0.000000000000000
END_DATAGRID_3D
END_BLOCK_DATAGRID_3D
