ATOMS
         C    7.558905    7.558905    7.558905
         H    8.755769    8.755769    8.755769
         H    6.362040    6.362040    8.755769
         H    8.755769    6.362040    6.362040
         H    6.362040    8.755769    6.362040
BEGIN_BLOCK_DATAGRID_3D
units: coords = b, function = sqrt(b^-3)
BEGIN_DATAGRID_3D_function
      9      9      9
0.0 0.0 0.0
   15.117809    0.000000    0.000000
    0.000000   15.117809    0.000000
    0.000000    0.000000   15.117809
        0.000000000000000
        0.000000000000000
        0.000000000000000
        0.000000000000000
        0.000000000000000
        0.000000000000000
        0.000000000000000
        0.000000000000000
        0.000000000000000
        0.000000000000000
        0.000000000000000
        0.000000000000000
        0.000000000000000
        0.000000000000000
        0.000000000000000
        0.000000000000000
        0.000000000000000
        0.000000000000000
        0.000000000000000
        0.000000000000000
        0.000000000000000
        0.000000000000000
        0.000000000000000
        0.000000000000000
        0.000000000000000
        0.000000000000000
        0.000000000000000
        0.000000000000000
        0.000000000000000
        0.000000000000000
        0.000000000000000
       -0.000007123737599
        0.000002699216614
        0.000000000000000
        0.000000000000000
        0.000000000000000
        0.000000000000000
        0.000000000000000
        0.000000000000000
       -0.000015743962257
       -0.000006597684835
        0.000006931936667
        0.000000000000000
        0.000000000000000
        0.000000000000000
        0.000000000000000
        0.000000000000000
        0.000000000000000
       -0.000010224229406
       -0.000001727812282
        0.000000000000000
        0.000000000000000
        0.000000000000000
        0.000000000000000
        0.000000000000000
        0.000000000000000
        0.000000000000000
        0.000000000000000
        0.000000000000000
        0.000000000000000
        0.000000000000000
        0.000000000000000
        0.000000000000000
        0.000000000000000
        0.000000000000000
        0.000000000000000
        0.000000000000000
        0.000000000000000
        0.000000000000000
        0.000000000000000
        0.000000000000000
        0.000000000000000
        0.000000000000000
        0.000000000000000
        0.000000000000000
        0.000000000000000
        0.000000000000000
        0.000000000000000
        0.000000000000000
        0.000000000000000
        0.000000000000000
        0.000000000000000
        0.000000000000000
        0.000000000000000
        0.000000000000000
        0.000000000000000
        0.000000000000000
        0.000000000000000
        0.000000000000000
        0.000000000000000
        0.000000000000000
        0.000000000000000
        0.000000000000000
        0.000000000000000
       -0.000015388126095
       -0.000005260900545
        0.000000000000000
        0.000000000000000
        0.000000000000000
        0.000000000000000
        0.000000000000000
        0.000000000000000
       -0.000055660824896
       -0.000046549164129
       -0.000000679214104
        0.000015459378611
        0.000000000000000
        0.000000000000000
        0.000000000000000
        0.000000000000000
       -0.000073363492420
       -0.000119166712769
       -0.000066544484575
        0.000031690847687
        0.000050878210703
        0.000023023675074
        0.000000000000000
        0.000000000000000
       -0.000035795555638
       -0.000102347266439
       -0.000134775535216
       -0.000038285812149
        0.000079045328982
        0.000079405285235
        0.000030322040988
        0.000000000000000
        0.000000000000000
       -0.000028207107522
       -0.000071189036796
       -0.000077128365062
        0.000010441616686
        0.000082422324788
        0.000059880340658
        0.000000000000000
        0.000000000000000
        0.000000000000000
        0.000000000000000
       -0.000024938461610
       -0.000020023422024
        0.000022973636877
        0.000041883219329
        0.000000000000000
        0.000000000000000
        0.000000000000000
        0.000000000000000
        0.000000000000000
        0.000000000000000
       -0.000000199237728
        0.000009568870933
        0.000000000000000
        0.000000000000000
        0.000000000000000
        0.000000000000000
        0.000000000000000
        0.000000000000000
        0.000000000000000
        0.000000000000000
        0.000000000000000
        0.000000000000000
        0.000000000000000
        0.000000000000000
        0.000000000000000
        0.000000000000000
        0.000000000000000
        0.000000000000000
        0.000000000000000
        0.000000000000000
        0.000000000000000
        0.000000000000000
        0.000000000000000
        0.000000000000000
        0.000000000000000
        0.000000000000000
        0.000000000000000
       -0.000073938113616
       -0.000072751248753
       -0.000020179751228
        0.000007226964003
        0.000000000000000
        0.000000000000000
        0.000000000000000
        0.000000000000000
       -0.000149355167434
       -0.000282853880427
       -0.000225242648325
        0.000003580819658
        0.000068156370392
        0.000032862229980
        0.000000000000000
        0.000000000000000
       -0.000106301091594
       -0.000360049001397
       -0.000617367273184
       -0.000382850470720
        0.000223034480514
        0.000238396322136
        0.000092197527246
        0.000000000000000
        0.000000000000000
       -0.000149488588925
       -0.000471362878356
       -0.000778699035711
       -0.000175315247290
        0.000560382546059
        0.000400799848744
        0.000135040086008
        0.000000000000000
        0.000000000000000
       -0.000106220762217
       -0.000302374551086
       -0.000398394714805
        0.000162200638672
        0.000494216701088
        0.000320215498386
        0.000098763803327
        0.000000000000000
        0.000000000000000
       -0.000039710745378
       -0.000097150800030
       -0.000069317067159
        0.000151639649843
        0.000241563349086
        0.000136918469265
        0.000000000000000
        0.000000000000000
        0.000000000000000
        0.000000000000000
       -0.000014379622812
        0.000005075117951
        0.000056815259539
        0.000065571847512
        0.000000000000000
        0.000000000000000
        0.000000000000000
        0.000000000000000
        0.000000000000000
        0.000000000000000
        0.000000000000000
        0.000000000000000
        0.000000000000000
        0.000000000000000
        0.000000000000000
        0.000000000000000
        0.000000000000000
        0.000000000000000
        0.000000000000000
        0.000000000000000
       -0.000029920344847
       -0.000015286479257
        0.000000000000000
        0.000000000000000
        0.000000000000000
        0.000000000000000
        0.000000000000000
       -0.000113436794506
       -0.000213780617440
       -0.000193578082291
       -0.000058185741720
        0.000014749544018
        0.000013914350634
        0.000000000000000
        0.000000000000000
       -0.000128090841373
       -0.000455318725279
       -0.000867035734900
       -0.000744448163357
       -0.000001298469706
        0.000162822614880
        0.000075574502827
        0.000000000000000
        0.000000000000000
       -0.000289919126268
       -0.001068761894858
       -0.002283505977753
       -0.001679649133576
        0.000940196403967
        0.000696918961696
        0.000221831900727
        0.000040807275800
       -0.000056759514507
       -0.000363724044030
       -0.001431519174396
       -0.003226651168925
       -0.000465080689659
        0.002751792848551
        0.001325906293618
        0.000348382124952
        0.000055335699491
       -0.000042539146101
       -0.000238891327701
       -0.000802842217526
       -0.001344849556981
        0.001194376922032
        0.002086076989618
        0.001023887886777
        0.000283454301230
        0.000000000000000
        0.000000000000000
       -0.000084974352307
       -0.000205444306735
       -0.000109662753578
        0.000629226328127
        0.000817804509163
        0.000444122747990
        0.000127202324258
        0.000000000000000
        0.000000000000000
       -0.000016564195474
       -0.000024850680388
        0.000038549022170
        0.000174513357381
        0.000205048570889
        0.000111999400256
        0.000000000000000
        0.000000000000000
        0.000000000000000
        0.000000000000000
        0.000000000000000
        0.000012924632381
        0.000027715374315
        0.000000000000000
        0.000000000000000
        0.000000000000000
        0.000000000000000
        0.000000000000000
        0.000000000000000
        0.000000000000000
       -0.000049087050771
       -0.000051855083186
       -0.000020432196822
        0.000000000000000
        0.000000000000000
        0.000000000000000
        0.000000000000000
       -0.000060919831877
       -0.000197082161783
       -0.000345401731835
       -0.000300909978449
       -0.000095105229046
        0.000012521050694
        0.000015584274882
        0.000000000000000
        0.000000000000000
       -0.000217992722509
       -0.000774142638131
       -0.001625913708061
       -0.001377898899479
       -0.000105640962486
        0.000199054487018
        0.000094378778185
        0.000000000000000
       -0.000067290309611
       -0.000447245353800
       -0.001916917430603
       -0.005127327610616
       -0.003655295261606
        0.001324584631492
        0.001021582113048
        0.000301323373695
        0.000050784256966
       -0.000088142355411
       -0.000512376907311
       -0.002350342125909
       -0.006245894588519
       -0.000000043725813
        0.006267668223697
        0.002366772134333
        0.000517762004161
        0.000089379035239
       -0.000050962368891
       -0.000303576823123
       -0.001041195602588
       -0.001389734165744
        0.003655277219525
        0.005215199546142
        0.001957212496169
        0.000457388703563
        0.000069127710518
        0.000000000000000
       -0.000097518097313
       -0.000212605927454
        0.000078518958533
        0.001377895468788
        0.001658431944952
        0.000794593474013
        0.000224447110505
        0.000000000000000
        0.000000000000000
       -0.000016958749715
       -0.000016562070496
        0.000089368247359
        0.000300909462470
        0.000352031577027
        0.000202616895194
        0.000063112568970
        0.000000000000000
        0.000000000000000
        0.000000000000000
        0.000000000000000
        0.000019475596965
        0.000051855032705
        0.000050146875317
        0.000000000000000
        0.000000000000000
        0.000000000000000
        0.000000000000000
        0.000000000000000
        0.000000000000000
       -0.000043983903969
       -0.000039649018749
        0.000000000000000
        0.000000000000000
        0.000000000000000
        0.000000000000000
        0.000000000000000
       -0.000056390924449
       -0.000177058389463
       -0.000300002207437
       -0.000247366269948
       -0.000077537479540
        0.000004226478639
        0.000000000000000
        0.000000000000000
        0.000000000000000
       -0.000192540145247
       -0.000677544810397
       -0.001383054901652
       -0.000989760253308
       -0.000114781984301
        0.000125640006994
        0.000061418195157
        0.000000000000000
       -0.000058292798634
       -0.000371735640133
       -0.001562621667300
       -0.004142992346494
       -0.002134342421136
        0.000677154734116
        0.000664805697017
        0.000218212584326
        0.000000000000000
       -0.000061493163995
       -0.000387098132893
       -0.001526593858795
       -0.003290410607435
        0.000465062647578
        0.003787991329082
        0.001652888315600
        0.000410329952306
        0.000064576267993
        0.000000000000000
       -0.000206531555168
       -0.000608206347514
       -0.000470125430200
        0.002619596527371
        0.004566782688077
        0.001685082488674
        0.000395212039009
        0.000061439502989
        0.000000000000000
       -0.000058568480642
       -0.000110488066070
        0.000166455736130
        0.001104977417600
        0.001499222471119
        0.000726340645820
        0.000204855836507
        0.000000000000000
        0.000000000000000
        0.000000000000000
       -0.000001982245965
        0.000086712548644
        0.000266430204955
        0.000320550847255
        0.000188571216517
        0.000059807308765
        0.000000000000000
        0.000000000000000
        0.000000000000000
        0.000000000000000
        0.000000000000000
        0.000041853893977
        0.000046454054129
        0.000000000000000
        0.000000000000000
        0.000000000000000
        0.000000000000000
        0.000000000000000
        0.000000000000000
        0.000000000000000
        0.000000000000000
        0.000000000000000
        0.000000000000000
        0.000000000000000
        0.000000000000000
        0.000000000000000
        0.000000000000000
       -0.000082521955227
       -0.000142585655999
       -0.000112542445731
       -0.000035616408695
        0.000000000000000
        0.000000000000000
        0.000000000000000
        0.000000000000000
       -0.000089032598546
       -0.000299286583092
       -0.000520323472905
       -0.000353243779673
       -0.000048443802208
        0.000044444716480
        0.000000000000000
        0.000000000000000
        0.000000000000000
       -0.000171293735336
       -0.000580614566045
       -0.001094322940425
       -0.000522734563853
        0.000208805823775
        0.000249547256598
        0.000089856716087
        0.000000000000000
        0.000000000000000
       -0.000166022230897
       -0.000515385687229
       -0.000768695713817
        0.000175311816599
        0.000992408436407
        0.000592848112288
        0.000183785802682
        0.000000000000000
        0.000000000000000
       -0.000080358230421
       -0.000205757789951
       -0.000083212725587
        0.000743379724963
        0.001274889520898
        0.000650766938564
        0.000188232812087
        0.000000000000000
        0.000000000000000
        0.000000000000000
       -0.000030748998219
        0.000090405158382
        0.000426845159731
        0.000588116436711
        0.000331052958440
        0.000097233808218
        0.000000000000000
        0.000000000000000
        0.000000000000000
        0.000000000000000
        0.000044086595804
        0.000128478109630
        0.000158169979469
        0.000090352049916
        0.000000000000000
        0.000000000000000
        0.000000000000000
        0.000000000000000
        0.000000000000000
        0.000000000000000
        0.000000000000000
        0.000000000000000
        0.000000000000000
        0.000000000000000
        0.000000000000000
        0.000000000000000
        0.000000000000000
        0.000000000000000
        0.000000000000000
        0.000000000000000
        0.000000000000000
        0.000000000000000
        0.000000000000000
        0.000000000000000
        0.000000000000000
        0.000000000000000
        0.000000000000000
       -0.000037527977714
       -0.000030348529221
        0.000000000000000
        0.000000000000000
        0.000000000000000
        0.000000000000000
        0.000000000000000
        0.000000000000000
       -0.000071963116429
       -0.000117487116024
       -0.000078700823069
       -0.000011927780512
        0.000000000000000
        0.000000000000000
        0.000000000000000
        0.000000000000000
       -0.000044748012401
       -0.000130720033056
       -0.000184324820204
       -0.000083294529253
        0.000045088766560
        0.000056345538236
        0.000000000000000
        0.000000000000000
        0.000000000000000
       -0.000042083025955
       -0.000111296965840
       -0.000121257949261
        0.000038285296170
        0.000177881018999
        0.000135732660653
        0.000048374802864
        0.000000000000000
        0.000000000000000
        0.000000000000000
       -0.000042055548050
       -0.000007901356026
        0.000139396607239
        0.000230674257849
        0.000152442549832
        0.000050697984325
        0.000000000000000
        0.000000000000000
        0.000000000000000
        0.000000000000000
        0.000025809307083
        0.000102276025005
        0.000138669442345
        0.000082119635308
        0.000000000000000
        0.000000000000000
        0.000000000000000
        0.000000000000000
        0.000000000000000
        0.000000000000000
        0.000036167711590
        0.000043119668982
        0.000000000000000
        0.000000000000000
        0.000000000000000
        0.000000000000000
        0.000000000000000
        0.000000000000000
        0.000000000000000
        0.000000000000000
        0.000000000000000
        0.000000000000000
        0.000000000000000
        0.000000000000000
        0.000000000000000
        0.000000000000000
        0.000000000000000
        0.000000000000000
        0.000000000000000
        0.000000000000000
        0.000000000000000
        0.000000000000000
        0.000000000000000
        0.000000000000000
        0.000000000000000
        0.000000000000000
        0.000000000000000
        0.000000000000000
        0.000000000000000
        0.000000000000000
        0.000000000000000
        0.000000000000000
        0.000000000000000
        0.000000000000000
        0.000000000000000
        0.000000000000000
        0.000000000000000
        0.000000000000000
        0.000000000000000
        0.000000000000000
        0.000000000000000
        0.000000000000000
        0.000000000000000
        0.000000000000000
       -0.000020835042183
       -0.000010205832151
        0.000000000000000
        0.000000000000000
        0.000000000000000
        0.000000000000000
        0.000000000000000
        0.000000000000000
        0.000000000000000
       -0.000013867491550
        0.000006597634354
        0.000022782741828
        0.000000000000000
        0.000000000000000
        0.000000000000000
        0.000000000000000
        0.000000000000000
        0.000000000000000
        0.000000000000000
        0.000019057286729
        0.000028468358258
        0.000000000000000
        0.000000000000000
        0.000000000000000
        0.000000000000000
        0.000000000000000
        0.000000000000000
        0.000000000000000
        0.000000000000000
        0.000000000000000
        0.000000000000000
        0.000000000000000
        0.000000000000000
        0.000000000000000
        0.000000000000000
        0.000000000000000
        0.000000000000000
        0.000000000000000
        0.000000000000000
        0.000000000000000
        0.000000000000000
        0.000000000000000
        0.000000000000000
        0.000000000000000
        0.000000000000000
        0.000000000000000
        0.000000000000000
        0.000000000000000
        0.000000000000000
        0.000000000000000
        0.000000000000000
END_DATAGRID_3D
END_BLOCK_DATAGRID_3D
