ATOMS
         C    7.558905    7.558905    7.558905
         H    8.755769    8.755769    8.755769
         H    6.362040    6.362040    8.755769
         H    8.755769    6.362040    6.362040
         H    6.362040    8.755769    6.362040
BEGIN_BLOCK_DATAGRID_3D
units: coords = b, function = sqrt(b^-3)
BEGIN_DATAGRID_3D_function
      9      9      9
0.0 0.0 0.0
   15.117809    0.000000    0.000000
    0.000000   15.117809    0.000000
    0.000000    0.000000   15.117809
        0.000000000000000
        0.000000000000000
        0.000000000000000
        0.000000000000000
        0.000000000000000
        0.000000000000000
        0.000000000000000
        0.000000000000000
        0.000000000000000
        0.000000000000000
        0.000000000000000
        0.000000000000000
        0.000000000000000
        0.000000000000000
        0.000000000000000
        0.000000000000000
        0.000000000000000
        0.000000000000000
        0.000000000000000
        0.000000000000000
        0.000000000000000
        0.000000000000000
        0.000000000000000
        0.000000000000000
        0.000000000000000
        0.000000000000000
        0.000000000000000
        0.000000000000000
        0.000000000000000
        0.000000000000000
        0.000000000000000
       -0.000707206695980
       -0.000521305287759
        0.000000000000000
        0.000000000000000
        0.000000000000000
        0.000000000000000
        0.000000000000000
        0.000000000000000
       -0.001127039618098
       -0.001460408984860
       -0.000832264348094
        0.000000000000000
        0.000000000000000
        0.000000000000000
        0.000000000000000
        0.000000000000000
        0.000000000000000
       -0.001149357421267
       -0.001252097270213
        0.000000000000000
        0.000000000000000
        0.000000000000000
        0.000000000000000
        0.000000000000000
        0.000000000000000
        0.000000000000000
        0.000000000000000
        0.000000000000000
        0.000000000000000
        0.000000000000000
        0.000000000000000
        0.000000000000000
        0.000000000000000
        0.000000000000000
        0.000000000000000
        0.000000000000000
        0.000000000000000
        0.000000000000000
        0.000000000000000
        0.000000000000000
        0.000000000000000
        0.000000000000000
        0.000000000000000
        0.000000000000000
        0.000000000000000
        0.000000000000000
        0.000000000000000
        0.000000000000000
        0.000000000000000
        0.000000000000000
        0.000000000000000
        0.000000000000000
        0.000000000000000
        0.000000000000000
        0.000000000000000
        0.000000000000000
        0.000000000000000
        0.000000000000000
        0.000000000000000
        0.000000000000000
        0.000000000000000
        0.000000000000000
        0.000000000000000
        0.000058714223775
        0.000082853038803
        0.000000000000000
        0.000000000000000
        0.000000000000000
        0.000000000000000
        0.000000000000000
        0.000000000000000
       -0.000596113240953
       -0.000686515682906
       -0.000348604147274
       -0.000083253272711
        0.000000000000000
        0.000000000000000
        0.000000000000000
        0.000000000000000
       -0.001463289242939
       -0.003207738812487
       -0.003899633150087
       -0.002406388930494
       -0.000806136058525
       -0.000167872327169
        0.000000000000000
        0.000000000000000
       -0.000941169077063
       -0.003412805446117
       -0.007223568038365
       -0.008474614171112
       -0.005194876633803
       -0.001805676561252
       -0.000346928854741
        0.000000000000000
        0.000000000000000
       -0.001038792280992
       -0.003783893532522
       -0.007693265555612
       -0.008518811522080
       -0.005003451579948
       -0.001624012877227
        0.000000000000000
        0.000000000000000
        0.000000000000000
        0.000000000000000
       -0.002046137399687
       -0.004241425443774
       -0.004531966324462
       -0.002491188879213
        0.000000000000000
        0.000000000000000
        0.000000000000000
        0.000000000000000
        0.000000000000000
        0.000000000000000
       -0.001289517646964
       -0.001346812155579
        0.000000000000000
        0.000000000000000
        0.000000000000000
        0.000000000000000
        0.000000000000000
        0.000000000000000
        0.000000000000000
        0.000000000000000
        0.000000000000000
        0.000000000000000
        0.000000000000000
        0.000000000000000
        0.000000000000000
        0.000000000000000
        0.000000000000000
        0.000000000000000
        0.000000000000000
        0.000000000000000
        0.000000000000000
        0.000000000000000
        0.000000000000000
        0.000000000000000
        0.000000000000000
        0.000000000000000
        0.000000000000000
        0.000610415394860
        0.001040138383938
        0.000934197966691
        0.000457361316007
        0.000000000000000
        0.000000000000000
        0.000000000000000
        0.000000000000000
       -0.000212004203883
       -0.000096155394017
        0.000649592773889
        0.001204744297103
        0.000742446043436
        0.000230378368787
        0.000000000000000
        0.000000000000000
       -0.000981608629193
       -0.003881017979127
       -0.008893839363446
       -0.010583205140524
       -0.004435731020472
       -0.000878954950347
       -0.000061932440799
        0.000000000000000
        0.000000000000000
       -0.002723475938338
       -0.011379192521906
       -0.029867031861329
       -0.038806128972275
       -0.018973951439155
       -0.004912877380585
       -0.000803977087016
        0.000000000000000
        0.000000000000000
       -0.003271762372740
       -0.013699970731667
       -0.034620118443316
       -0.038257778159960
       -0.018794356748429
       -0.005460943153605
       -0.000924058483726
        0.000000000000000
        0.000000000000000
       -0.001830308650029
       -0.007287971988641
       -0.015783669979118
       -0.016941662676380
       -0.009245805738715
       -0.002761664966675
        0.000000000000000
        0.000000000000000
        0.000000000000000
        0.000000000000000
       -0.002057291597250
       -0.004267892780230
       -0.004567591409292
       -0.002516082507779
        0.000000000000000
        0.000000000000000
        0.000000000000000
        0.000000000000000
        0.000000000000000
        0.000000000000000
        0.000000000000000
        0.000000000000000
        0.000000000000000
        0.000000000000000
        0.000000000000000
        0.000000000000000
        0.000000000000000
        0.000000000000000
        0.000000000000000
        0.000000000000000
        0.000795035182676
        0.000661848783544
        0.000000000000000
        0.000000000000000
        0.000000000000000
        0.000000000000000
        0.000000000000000
        0.001186676702261
        0.003037976239235
        0.004471576339936
        0.003505963297363
        0.001566388561275
        0.000429290553418
        0.000000000000000
        0.000000000000000
        0.000461828680194
        0.002418985542346
        0.007587432854810
        0.013245205192816
        0.010321557936625
        0.004083876951644
        0.001027790065036
        0.000000000000000
        0.000000000000000
       -0.000714271380302
       -0.002314045828698
       -0.003235698545888
        0.003691313042283
        0.010259654823551
        0.004125548782664
        0.001023597557169
        0.000165088607766
       -0.000527301850897
       -0.003881542656400
       -0.020354051420356
       -0.071686614352268
       -0.102944990251973
       -0.035727759528643
       -0.005150159771138
       -0.000338410995493
        0.000039244849330
       -0.000677008599776
       -0.005332886062522
       -0.028728588154607
       -0.100710452467551
       -0.111105686923193
       -0.042149708134268
       -0.009232926909768
       -0.001380068295668
        0.000000000000000
        0.000000000000000
       -0.003294246005945
       -0.013802366058502
       -0.034924597308569
       -0.038749416384309
       -0.019134405593276
       -0.005590927592405
       -0.000953840116064
        0.000000000000000
        0.000000000000000
       -0.001051113207741
       -0.003832844502184
       -0.007815251802717
       -0.008691529991829
       -0.005132315915205
       -0.001678688138131
        0.000000000000000
        0.000000000000000
        0.000000000000000
        0.000000000000000
        0.000000000000000
       -0.001173768775554
       -0.001283092184243
        0.000000000000000
        0.000000000000000
        0.000000000000000
        0.000000000000000
        0.000000000000000
        0.000000000000000
        0.000000000000000
        0.001074025223954
        0.001521942163210
        0.000967832466326
        0.000000000000000
        0.000000000000000
        0.000000000000000
        0.000000000000000
        0.000723163028711
        0.002851829781880
        0.006680418674187
        0.008831685341339
        0.006261267349380
        0.002586528840465
        0.000619207891407
        0.000000000000000
        0.000000000000000
        0.001814505222814
        0.008643037616826
        0.026059816266420
        0.040441194546271
        0.024839043264177
        0.008335485774643
        0.001861574247857
        0.000000000000000
        0.000171521112500
        0.001651234566128
        0.011744386374054
        0.053781932351440
        0.107282496054126
        0.058158261278473
        0.014834424598854
        0.002746523497667
        0.000337099785095
       -0.000269769418779
       -0.001565446229799
       -0.007168339120360
       -0.019016186886239
       -0.000000000000001
        0.019016186886241
        0.007168339120361
        0.001565446229799
        0.000269769418779
       -0.000533447324711
       -0.003945192379367
       -0.020766382139718
       -0.073623711956140
       -0.107282496054124
       -0.038316481673769
       -0.005812428833189
       -0.000452565684427
        0.000024826427117
        0.000000000000000
       -0.002778472763844
       -0.011652538567490
       -0.030771000805041
       -0.040441194546270
       -0.020127858725555
       -0.005325984823978
       -0.000897606706826
        0.000000000000000
        0.000000000000000
       -0.000961102834611
       -0.003503427356453
       -0.007459936231080
       -0.008831685341339
       -0.005481749792486
       -0.001934931265892
       -0.000381268085507
        0.000000000000000
        0.000000000000000
        0.000000000000000
        0.000000000000000
       -0.001164180005943
       -0.001521942163210
       -0.000877677684338
        0.000000000000000
        0.000000000000000
        0.000000000000000
        0.000000000000000
        0.000000000000000
        0.000000000000000
        0.001079205978326
        0.001246822507605
        0.000000000000000
        0.000000000000000
        0.000000000000000
        0.000000000000000
        0.000000000000000
        0.000828215914326
        0.003217038298883
        0.007019232148298
        0.008470109683630
        0.005519186170707
        0.002030706452703
        0.000000000000000
        0.000000000000000
        0.000000000000000
        0.002446367344700
        0.011109320241594
        0.030379878876703
        0.037653654337781
        0.021267383516996
        0.007316591739337
        0.001524132210392
        0.000000000000000
        0.000368400728514
        0.003467259413531
        0.021514120208315
        0.084002215691797
        0.108248880587630
        0.050533383466361
        0.014347541137402
        0.002896854403266
        0.000000000000000
        0.000165375638686
        0.001587584843161
        0.011332055654691
        0.051844834747566
        0.102944990251974
        0.055569539133346
        0.014172155536803
        0.002632368808732
        0.000322681362882
        0.000000000000000
       -0.000802514727297
       -0.002800568398935
       -0.005147976786202
       -0.000834506706717
        0.006448581952206
        0.003088919163629
        0.000842029091823
        0.000143519263496
        0.000000000000000
       -0.001032120774522
       -0.004144649689277
       -0.009720410778529
       -0.012149443146287
       -0.005776839504759
       -0.001390831134735
       -0.000179911403791
        0.000000000000000
        0.000000000000000
        0.000000000000000
       -0.001538695016834
       -0.003424846494738
       -0.004250156031737
       -0.002709943642944
       -0.000950582357974
       -0.000206393260003
        0.000000000000000
        0.000000000000000
        0.000000000000000
        0.000000000000000
        0.000000000000000
       -0.000758765506037
       -0.000567285986315
        0.000000000000000
        0.000000000000000
        0.000000000000000
        0.000000000000000
        0.000000000000000
        0.000000000000000
        0.000000000000000
        0.000000000000000
        0.000000000000000
        0.000000000000000
        0.000000000000000
        0.000000000000000
        0.000000000000000
        0.000000000000000
        0.001761749549418
        0.003849228893466
        0.004398220238407
        0.002606967760104
        0.000000000000000
        0.000000000000000
        0.000000000000000
        0.000000000000000
        0.001436963710358
        0.006078870464243
        0.013988452896135
        0.016328930617580
        0.009831732675699
        0.003310966574716
        0.000000000000000
        0.000000000000000
        0.000000000000000
        0.002423883711494
        0.011006924914759
        0.030075400011450
        0.037162016113432
        0.020927334672149
        0.007186607300536
        0.001494350578054
        0.000000000000000
        0.000000000000000
        0.001759508397308
        0.008369691571242
        0.025155847322708
        0.038806128972276
        0.023685135977777
        0.007922378331250
        0.001767944628046
        0.000000000000000
        0.000000000000000
        0.000411316534865
        0.002155353832196
        0.006760861439726
        0.011678967187053
        0.008980449452338
        0.003572000767256
        0.000909811102044
        0.000000000000000
        0.000000000000000
        0.000000000000000
       -0.000337297404158
       -0.000489771542967
       -0.000036860715088
        0.000590472785881
        0.000466655480962
        0.000162966570885
        0.000000000000000
        0.000000000000000
        0.000000000000000
        0.000000000000000
       -0.000701300647185
       -0.000870767213053
       -0.000515534079928
       -0.000161819268176
        0.000000000000000
        0.000000000000000
        0.000000000000000
        0.000000000000000
        0.000000000000000
        0.000000000000000
        0.000000000000000
        0.000000000000000
        0.000000000000000
        0.000000000000000
        0.000000000000000
        0.000000000000000
        0.000000000000000
        0.000000000000000
        0.000000000000000
        0.000000000000000
        0.000000000000000
        0.000000000000000
        0.000000000000000
        0.000000000000000
        0.000000000000000
        0.000000000000000
        0.000000000000000
        0.001174653428941
        0.001283656696343
        0.000000000000000
        0.000000000000000
        0.000000000000000
        0.000000000000000
        0.000000000000000
        0.000000000000000
        0.001750595351856
        0.003822761557010
        0.004362595153577
        0.002582074131539
        0.000000000000000
        0.000000000000000
        0.000000000000000
        0.000000000000000
        0.000815894987577
        0.003168087329221
        0.006897245901193
        0.008297391213881
        0.005390321835451
        0.001976031191800
        0.000000000000000
        0.000000000000000
        0.000000000000000
        0.000703229271163
        0.002761207871544
        0.006444050481471
        0.008474614171113
        0.005974394190696
        0.002457274135824
        0.000584868660641
        0.000000000000000
        0.000000000000000
        0.000000000000000
        0.001111270928366
        0.002820868556984
        0.004121053458286
        0.003202408584913
        0.001421942261827
        0.000390769620584
        0.000000000000000
        0.000000000000000
        0.000000000000000
        0.000000000000000
        0.000505227988628
        0.000855886853792
        0.000767268034038
        0.000378795320543
        0.000000000000000
        0.000000000000000
        0.000000000000000
        0.000000000000000
        0.000000000000000
        0.000000000000000
        0.000004441235461
        0.000032011179220
        0.000000000000000
        0.000000000000000
        0.000000000000000
        0.000000000000000
        0.000000000000000
        0.000000000000000
        0.000000000000000
        0.000000000000000
        0.000000000000000
        0.000000000000000
        0.000000000000000
        0.000000000000000
        0.000000000000000
        0.000000000000000
        0.000000000000000
        0.000000000000000
        0.000000000000000
        0.000000000000000
        0.000000000000000
        0.000000000000000
        0.000000000000000
        0.000000000000000
        0.000000000000000
        0.000000000000000
        0.000000000000000
        0.000000000000000
        0.000000000000000
        0.000000000000000
        0.000000000000000
        0.000000000000000
        0.000000000000000
        0.000000000000000
        0.000000000000000
        0.000000000000000
        0.000000000000000
        0.000000000000000
        0.000000000000000
        0.000000000000000
        0.000000000000000
        0.000000000000000
        0.000000000000000
        0.000000000000000
        0.001054794624039
        0.001215827593574
        0.000000000000000
        0.000000000000000
        0.000000000000000
        0.000000000000000
        0.000000000000000
        0.000000000000000
        0.000000000000000
        0.001036884836110
        0.001460408984860
        0.000922419130082
        0.000000000000000
        0.000000000000000
        0.000000000000000
        0.000000000000000
        0.000000000000000
        0.000000000000000
        0.000000000000000
        0.000743476372618
        0.000615868084987
        0.000000000000000
        0.000000000000000
        0.000000000000000
        0.000000000000000
        0.000000000000000
        0.000000000000000
        0.000000000000000
        0.000000000000000
        0.000000000000000
        0.000000000000000
        0.000000000000000
        0.000000000000000
        0.000000000000000
        0.000000000000000
        0.000000000000000
        0.000000000000000
        0.000000000000000
        0.000000000000000
        0.000000000000000
        0.000000000000000
        0.000000000000000
        0.000000000000000
        0.000000000000000
        0.000000000000000
        0.000000000000000
        0.000000000000000
        0.000000000000000
        0.000000000000000
        0.000000000000000
        0.000000000000000
END_DATAGRID_3D
END_BLOCK_DATAGRID_3D
