ATOMS
         C    7.558905    7.558905    7.558905
         H    8.755769    8.755769    8.755769
         H    6.362040    6.362040    8.755769
         H    8.755769    6.362040    6.362040
         H    6.362040    8.755769    6.362040
BEGIN_BLOCK_DATAGRID_3D
units: coords = b, function = sqrt(b^-3)
BEGIN_DATAGRID_3D_function
      9      9      9
0.0 0.0 0.0
   15.117809    0.000000    0.000000
    0.000000   15.117809    0.000000
    0.000000    0.000000   15.117809
        0.000000000000000
        0.000000000000000
        0.000000000000000
        0.000000000000000
        0.000000000000000
        0.000000000000000
        0.000000000000000
        0.000000000000000
        0.000000000000000
        0.000000000000000
        0.000000000000000
        0.000000000000000
        0.000000000000000
        0.000000000000000
        0.000000000000000
        0.000000000000000
        0.000000000000000
        0.000000000000000
        0.000000000000000
        0.000000000000000
        0.000000000000000
        0.000000000000000
        0.000000000000000
        0.000000000000000
        0.000000000000000
        0.000000000000000
        0.000000000000000
        0.000000000000000
        0.000000000000000
        0.000000000000000
        0.000000000000000
       -0.001095572504439
       -0.000888490085458
        0.000000000000000
        0.000000000000000
        0.000000000000000
        0.000000000000000
        0.000000000000000
        0.000000000000000
       -0.000942950131727
       -0.001353763536935
       -0.000873276894196
        0.000000000000000
        0.000000000000000
        0.000000000000000
        0.000000000000000
        0.000000000000000
        0.000000000000000
       -0.000660173529626
       -0.000720654521484
        0.000000000000000
        0.000000000000000
        0.000000000000000
        0.000000000000000
        0.000000000000000
        0.000000000000000
        0.000000000000000
        0.000000000000000
        0.000000000000000
        0.000000000000000
        0.000000000000000
        0.000000000000000
        0.000000000000000
        0.000000000000000
        0.000000000000000
        0.000000000000000
        0.000000000000000
        0.000000000000000
        0.000000000000000
        0.000000000000000
        0.000000000000000
        0.000000000000000
        0.000000000000000
        0.000000000000000
        0.000000000000000
        0.000000000000000
        0.000000000000000
        0.000000000000000
        0.000000000000000
        0.000000000000000
        0.000000000000000
        0.000000000000000
        0.000000000000000
        0.000000000000000
        0.000000000000000
        0.000000000000000
        0.000000000000000
        0.000000000000000
        0.000000000000000
        0.000000000000000
        0.000000000000000
        0.000000000000000
        0.000000000000000
        0.000000000000000
       -0.001139286513979
       -0.000985988701799
        0.000000000000000
        0.000000000000000
        0.000000000000000
        0.000000000000000
        0.000000000000000
        0.000000000000000
       -0.002502118639413
       -0.003908927974997
       -0.003158482038445
       -0.001343731455487
        0.000000000000000
        0.000000000000000
        0.000000000000000
        0.000000000000000
       -0.002186873092889
       -0.005401766857102
       -0.007511151645147
       -0.005642039127873
       -0.002345198455254
       -0.000540313069083
        0.000000000000000
        0.000000000000000
       -0.000775797721725
       -0.002917836542094
       -0.006302797553167
       -0.007855760799460
       -0.005208798004589
       -0.001919569097671
       -0.000418237668467
        0.000000000000000
        0.000000000000000
       -0.000578235614726
       -0.001909647110769
       -0.003720094439280
       -0.004000443912609
       -0.002209806519497
       -0.000674980731013
        0.000000000000000
        0.000000000000000
        0.000000000000000
        0.000000000000000
       -0.000630161801858
       -0.001096363527578
       -0.000928477664768
       -0.000359735184489
        0.000000000000000
        0.000000000000000
        0.000000000000000
        0.000000000000000
        0.000000000000000
        0.000000000000000
       -0.000132559982010
       -0.000054748876213
        0.000000000000000
        0.000000000000000
        0.000000000000000
        0.000000000000000
        0.000000000000000
        0.000000000000000
        0.000000000000000
        0.000000000000000
        0.000000000000000
        0.000000000000000
        0.000000000000000
        0.000000000000000
        0.000000000000000
        0.000000000000000
        0.000000000000000
        0.000000000000000
        0.000000000000000
        0.000000000000000
        0.000000000000000
        0.000000000000000
        0.000000000000000
        0.000000000000000
        0.000000000000000
        0.000000000000000
        0.000000000000000
       -0.002536426921941
       -0.003958026300387
       -0.003194959197832
       -0.001359104118430
        0.000000000000000
        0.000000000000000
        0.000000000000000
        0.000000000000000
       -0.003644327856111
       -0.009785918954395
       -0.014681365982718
       -0.011318253629201
       -0.004493425330456
       -0.000955631704595
        0.000000000000000
        0.000000000000000
       -0.001957676492509
       -0.008410003256278
       -0.021632449325155
       -0.033599801856594
       -0.023588393838676
       -0.007614384350173
       -0.001424292524739
        0.000000000000000
        0.000000000000000
       -0.002589835009097
       -0.010308527036630
       -0.026589528878836
       -0.035972335802417
       -0.018684872323626
       -0.004793824704447
       -0.000680027976875
        0.000000000000000
        0.000000000000000
       -0.001665961321014
       -0.005899924450032
       -0.012615426773366
       -0.011674599345869
       -0.004033833673882
       -0.000249767038251
        0.000191169522373
        0.000000000000000
        0.000000000000000
       -0.000527464673773
       -0.001574117697929
       -0.002196055171004
       -0.000420985758358
        0.001126148659866
        0.000887809007116
        0.000000000000000
        0.000000000000000
        0.000000000000000
        0.000000000000000
       -0.000123992259939
        0.000104705352078
        0.000688163314415
        0.000769919951805
        0.000000000000000
        0.000000000000000
        0.000000000000000
        0.000000000000000
        0.000000000000000
        0.000000000000000
        0.000000000000000
        0.000000000000000
        0.000000000000000
        0.000000000000000
        0.000000000000000
        0.000000000000000
        0.000000000000000
        0.000000000000000
        0.000000000000000
        0.000000000000000
       -0.001138289550076
       -0.000922133699831
        0.000000000000000
        0.000000000000000
        0.000000000000000
        0.000000000000000
        0.000000000000000
       -0.002262226281896
       -0.005579367081601
       -0.007749191432815
       -0.005810160003431
       -0.002412662452829
       -0.000557293712737
        0.000000000000000
        0.000000000000000
       -0.001998721398989
       -0.008589147202246
       -0.022101103053630
       -0.034277375359322
       -0.024008025187539
       -0.007755505110989
       -0.001455279362928
        0.000000000000000
        0.000000000000000
       -0.004215307941580
       -0.018501606467200
       -0.055621285468821
       -0.098520956809863
       -0.062093391531238
       -0.012994339797952
       -0.001397643074384
       -0.000039120109284
       -0.000657578760243
       -0.004712571926334
       -0.022062996744628
       -0.071118727201396
       -0.095427497062804
       -0.028451779560850
       -0.001578785459715
        0.000800777736684
        0.000205161814362
       -0.000435417247166
       -0.002596962347219
       -0.009812078092375
       -0.021752293483391
       -0.001049549952383
        0.013550119576591
        0.007797844153102
        0.002273906103686
        0.000000000000000
        0.000000000000000
       -0.000645670057872
       -0.001253297439088
        0.001201607297212
        0.010635593154979
        0.011397340739531
        0.005648834226115
        0.001542638788884
        0.000000000000000
        0.000000000000000
       -0.000019120733209
        0.000311713032030
        0.001815554581828
        0.003837397243166
        0.003637965243708
        0.001806143671792
        0.000000000000000
        0.000000000000000
        0.000000000000000
        0.000000000000000
        0.000000000000000
        0.000447596343381
        0.000685872604195
        0.000000000000000
        0.000000000000000
        0.000000000000000
        0.000000000000000
        0.000000000000000
        0.000000000000000
        0.000000000000000
       -0.001005538579462
       -0.001438568275711
       -0.000924463603117
        0.000000000000000
        0.000000000000000
        0.000000000000000
        0.000000000000000
       -0.000823123889053
       -0.003095974771853
       -0.006698164799530
       -0.008347874617204
       -0.005534559542931
       -0.002044463790901
       -0.000445710279944
        0.000000000000000
        0.000000000000000
       -0.002718874913466
       -0.010877869784121
       -0.028179838507231
       -0.038225775533693
       -0.019930718096418
       -0.005170548946767
       -0.000755824344715
        0.000000000000000
       -0.000677450162342
       -0.004869899385028
       -0.022975732870295
       -0.074686491961317
       -0.101405427284479
       -0.031121478423912
       -0.002147057729779
        0.000713055986010
        0.000196692151078
       -0.000787225185514
       -0.004568192733799
       -0.020918223864670
       -0.055491913490663
       -0.000000000000001
        0.055491913490665
        0.020918223864670
        0.004568192733800
        0.000787225185514
       -0.000378701535062
       -0.001824192826256
       -0.003351722341227
        0.016785382558483
        0.101405427284481
        0.089022587826750
        0.028474512941302
        0.005981036225275
        0.000859459546326
        0.000000000000000
       -0.000094118233619
        0.002095721848607
        0.014431938025413
        0.038225775533694
        0.033678618578238
        0.013952696882281
        0.003568817491800
        0.000000000000000
        0.000000000000000
        0.000128782000010
        0.001194521212567
        0.004423422702685
        0.008347874617204
        0.007809301639777
        0.003945917350187
        0.001140052168988
        0.000000000000000
        0.000000000000000
        0.000000000000000
        0.000000000000000
        0.000742454219133
        0.001438568275711
        0.001187547963446
        0.000000000000000
        0.000000000000000
        0.000000000000000
        0.000000000000000
        0.000000000000000
        0.000000000000000
       -0.000723543913449
       -0.000791712632503
        0.000000000000000
        0.000000000000000
        0.000000000000000
        0.000000000000000
        0.000000000000000
       -0.000631324984299
       -0.002108722325482
       -0.004138452125070
       -0.004483532909646
       -0.002509023312347
       -0.000778904616125
        0.000000000000000
        0.000000000000000
        0.000000000000000
       -0.001828559376339
       -0.006605389814687
       -0.014463736217653
       -0.013833181244328
       -0.005173010534499
       -0.000613103028882
        0.000121553919790
        0.000000000000000
       -0.000465144016616
       -0.002847199157452
       -0.011240756187799
       -0.027004696300539
       -0.007287013575367
        0.010914626644372
        0.007127321020959
        0.002152289535335
        0.000000000000000
       -0.000398572937160
       -0.001981520284951
       -0.004264458466894
        0.013217617798561
        0.095427497062804
        0.086352888963687
        0.027906240671238
        0.005893314474601
        0.000850989883041
        0.000000000000000
       -0.000210887697442
        0.003576441293140
        0.031156539247860
        0.106857520337616
        0.110850381315172
        0.034047174078127
        0.006841804579055
        0.000939681373066
        0.000000000000000
        0.000334528690315
        0.003553416005013
        0.015876772848598
        0.037474963448672
        0.037270154107981
        0.015614192364764
        0.003929508797139
        0.000000000000000
        0.000000000000000
        0.000000000000000
        0.001234987226230
        0.004450425150240
        0.008395327099296
        0.008133057546673
        0.004209671746281
        0.001207739430245
        0.000000000000000
        0.000000000000000
        0.000000000000000
        0.000000000000000
        0.000000000000000
        0.001244129578384
        0.001198081269899
        0.000000000000000
        0.000000000000000
        0.000000000000000
        0.000000000000000
        0.000000000000000
        0.000000000000000
        0.000000000000000
        0.000000000000000
        0.000000000000000
        0.000000000000000
        0.000000000000000
        0.000000000000000
        0.000000000000000
        0.000000000000000
       -0.000738441089566
       -0.001326425580479
       -0.001182412262367
       -0.000504703976080
        0.000000000000000
        0.000000000000000
        0.000000000000000
        0.000000000000000
       -0.000620371298539
       -0.001954210962000
       -0.003042641296475
       -0.001367052748169
        0.000583668723267
        0.000715130504156
        0.000000000000000
        0.000000000000000
        0.000000000000000
       -0.000808268113197
       -0.001958762803742
       -0.000646702147075
        0.008477011256519
        0.010258163878914
        0.005285498235484
        0.001473023186301
        0.000000000000000
        0.000000000000000
       -0.000223158137988
        0.001526379101115
        0.012841628397017
        0.035972335802418
        0.032432772805446
        0.013575972639962
        0.003493021123959
        0.000000000000000
        0.000000000000000
        0.000293483783835
        0.003374272059045
        0.015408119120124
        0.036797389945944
        0.036850522759118
        0.015473071603948
        0.003898521958951
        0.000000000000000
        0.000000000000000
        0.000000000000000
        0.002041388344838
        0.008076101571262
        0.016469404489246
        0.016556950096681
        0.008021753990386
        0.002103467676908
        0.000000000000000
        0.000000000000000
        0.000000000000000
        0.000000000000000
        0.002271210946216
        0.004452275248339
        0.004416679426232
        0.002221537467935
        0.000000000000000
        0.000000000000000
        0.000000000000000
        0.000000000000000
        0.000000000000000
        0.000000000000000
        0.000000000000000
        0.000000000000000
        0.000000000000000
        0.000000000000000
        0.000000000000000
        0.000000000000000
        0.000000000000000
        0.000000000000000
        0.000000000000000
        0.000000000000000
        0.000000000000000
        0.000000000000000
        0.000000000000000
        0.000000000000000
        0.000000000000000
        0.000000000000000
        0.000000000000000
       -0.000202629995237
       -0.000129547655019
        0.000000000000000
        0.000000000000000
        0.000000000000000
        0.000000000000000
        0.000000000000000
        0.000000000000000
       -0.000232271547647
       -0.000125356700822
        0.000434228716816
        0.000624951160214
        0.000000000000000
        0.000000000000000
        0.000000000000000
        0.000000000000000
       -0.000072210102782
        0.000112637817317
        0.001397196896038
        0.003354308246128
        0.003338748450858
        0.001702219786680
        0.000000000000000
        0.000000000000000
        0.000000000000000
        0.000081455832681
        0.001016382982808
        0.004028055456322
        0.007855760799460
        0.007483540101434
        0.003821022656957
        0.001112579557511
        0.000000000000000
        0.000000000000000
        0.000000000000000
        0.001159634037222
        0.004272824925742
        0.008157287311627
        0.007964936671115
        0.004142207748706
        0.001190758786591
        0.000000000000000
        0.000000000000000
        0.000000000000000
        0.000000000000000
        0.002236902663688
        0.004403176922949
        0.004380202266845
        0.002206164804992
        0.000000000000000
        0.000000000000000
        0.000000000000000
        0.000000000000000
        0.000000000000000
        0.000000000000000
        0.001323583045211
        0.001321178679045
        0.000000000000000
        0.000000000000000
        0.000000000000000
        0.000000000000000
        0.000000000000000
        0.000000000000000
        0.000000000000000
        0.000000000000000
        0.000000000000000
        0.000000000000000
        0.000000000000000
        0.000000000000000
        0.000000000000000
        0.000000000000000
        0.000000000000000
        0.000000000000000
        0.000000000000000
        0.000000000000000
        0.000000000000000
        0.000000000000000
        0.000000000000000
        0.000000000000000
        0.000000000000000
        0.000000000000000
        0.000000000000000
        0.000000000000000
        0.000000000000000
        0.000000000000000
        0.000000000000000
        0.000000000000000
        0.000000000000000
        0.000000000000000
        0.000000000000000
        0.000000000000000
        0.000000000000000
        0.000000000000000
        0.000000000000000
        0.000000000000000
        0.000000000000000
        0.000000000000000
        0.000000000000000
        0.000000000000000
        0.000384225959558
        0.000614814493175
        0.000000000000000
        0.000000000000000
        0.000000000000000
        0.000000000000000
        0.000000000000000
        0.000000000000000
        0.000000000000000
        0.000679865771398
        0.001353763536935
        0.001136361254525
        0.000000000000000
        0.000000000000000
        0.000000000000000
        0.000000000000000
        0.000000000000000
        0.000000000000000
        0.000000000000000
        0.001201412532747
        0.001164437655527
        0.000000000000000
        0.000000000000000
        0.000000000000000
        0.000000000000000
        0.000000000000000
        0.000000000000000
        0.000000000000000
        0.000000000000000
        0.000000000000000
        0.000000000000000
        0.000000000000000
        0.000000000000000
        0.000000000000000
        0.000000000000000
        0.000000000000000
        0.000000000000000
        0.000000000000000
        0.000000000000000
        0.000000000000000
        0.000000000000000
        0.000000000000000
        0.000000000000000
        0.000000000000000
        0.000000000000000
        0.000000000000000
        0.000000000000000
        0.000000000000000
        0.000000000000000
        0.000000000000000
        0.000000000000000
END_DATAGRID_3D
END_BLOCK_DATAGRID_3D
