ATOMS
         C    7.558905    7.558905    7.558905
         H    8.755769    8.755769    8.755769
         H    6.362040    6.362040    8.755769
         H    8.755769    6.362040    6.362040
         H    6.362040    8.755769    6.362040
BEGIN_BLOCK_DATAGRID_3D
units: coords = b, function = sqrt(b^-3)
BEGIN_DATAGRID_3D_function
      9      9      9
0.0 0.0 0.0
   15.117809    0.000000    0.000000
    0.000000   15.117809    0.000000
    0.000000    0.000000   15.117809
        0.000000000000000
        0.000000000000000
        0.000000000000000
        0.000000000000000
        0.000000000000000
        0.000000000000000
        0.000000000000000
        0.000000000000000
        0.000000000000000
        0.000000000000000
        0.000000000000000
        0.000000000000000
        0.000000000000000
        0.000000000000000
        0.000000000000000
        0.000000000000000
        0.000000000000000
        0.000000000000000
        0.000000000000000
        0.000000000000000
        0.000000000000000
        0.000000000000000
        0.000000000000000
        0.000000000000000
        0.000000000000000
        0.000000000000000
        0.000000000000000
        0.000000000000000
        0.000000000000000
        0.000000000000000
        0.000000000000000
       -0.000693563962071
       -0.000834289996775
        0.000000000000000
        0.000000000000000
        0.000000000000000
        0.000000000000000
        0.000000000000000
        0.000000000000000
       -0.000148587149910
       -0.000745927458624
       -0.000852158972117
        0.000000000000000
        0.000000000000000
        0.000000000000000
        0.000000000000000
        0.000000000000000
        0.000000000000000
       -0.000019027944760
       -0.000307182159956
        0.000000000000000
        0.000000000000000
        0.000000000000000
        0.000000000000000
        0.000000000000000
        0.000000000000000
        0.000000000000000
        0.000000000000000
        0.000000000000000
        0.000000000000000
        0.000000000000000
        0.000000000000000
        0.000000000000000
        0.000000000000000
        0.000000000000000
        0.000000000000000
        0.000000000000000
        0.000000000000000
        0.000000000000000
        0.000000000000000
        0.000000000000000
        0.000000000000000
        0.000000000000000
        0.000000000000000
        0.000000000000000
        0.000000000000000
        0.000000000000000
        0.000000000000000
        0.000000000000000
        0.000000000000000
        0.000000000000000
        0.000000000000000
        0.000000000000000
        0.000000000000000
        0.000000000000000
        0.000000000000000
        0.000000000000000
        0.000000000000000
        0.000000000000000
        0.000000000000000
        0.000000000000000
        0.000000000000000
        0.000000000000000
        0.000000000000000
       -0.000720709530184
       -0.000877172670971
        0.000000000000000
        0.000000000000000
        0.000000000000000
        0.000000000000000
        0.000000000000000
        0.000000000000000
       -0.000699498298632
       -0.002392537339693
       -0.003111741141524
       -0.001817800856412
        0.000000000000000
        0.000000000000000
        0.000000000000000
        0.000000000000000
        0.000426165717328
       -0.000958359828925
       -0.004507529768798
       -0.006010675751699
       -0.003691971753840
       -0.001195136356221
        0.000000000000000
        0.000000000000000
        0.000577219205547
        0.001146405477566
       -0.000192795635748
       -0.004328545960075
       -0.006150125402398
       -0.003811829384145
       -0.001235136012886
        0.000000000000000
        0.000000000000000
        0.000578812933188
        0.001347540061518
        0.000852114224143
       -0.001835391269348
       -0.003235638184782
       -0.002003055101311
        0.000000000000000
        0.000000000000000
        0.000000000000000
        0.000000000000000
        0.000730180204153
        0.000767309449203
       -0.000272886566886
       -0.000877391085350
        0.000000000000000
        0.000000000000000
        0.000000000000000
        0.000000000000000
        0.000000000000000
        0.000000000000000
        0.000260849247939
        0.000062792722844
        0.000000000000000
        0.000000000000000
        0.000000000000000
        0.000000000000000
        0.000000000000000
        0.000000000000000
        0.000000000000000
        0.000000000000000
        0.000000000000000
        0.000000000000000
        0.000000000000000
        0.000000000000000
        0.000000000000000
        0.000000000000000
        0.000000000000000
        0.000000000000000
        0.000000000000000
        0.000000000000000
        0.000000000000000
        0.000000000000000
        0.000000000000000
        0.000000000000000
        0.000000000000000
        0.000000000000000
        0.000000000000000
       -0.000546971724038
       -0.002174257704625
       -0.002949572249285
       -0.001749457603758
        0.000000000000000
        0.000000000000000
        0.000000000000000
        0.000000000000000
        0.000857283483440
       -0.001440561007147
       -0.008440789670734
       -0.012075720846832
       -0.006883679912837
       -0.002037311742916
        0.000000000000000
        0.000000000000000
        0.001519603172312
        0.003472494252289
       -0.000793301321412
       -0.019668669171485
       -0.029565080861196
       -0.014718216507785
       -0.004212840104642
        0.000000000000000
        0.000000000000000
        0.002711215605105
        0.007173538599634
        0.005363284872353
       -0.019820856666449
       -0.030309605339899
       -0.015494976240780
       -0.004512919167528
        0.000000000000000
        0.000000000000000
        0.002510101675977
        0.007271794925759
        0.009616675423456
       -0.005277651296062
       -0.013348891703769
       -0.008244051671163
       -0.002492953405882
        0.000000000000000
        0.000000000000000
        0.001220121530425
        0.003540446897786
        0.004629299264806
        0.000119352029588
       -0.003330996411726
       -0.002376133004483
        0.000000000000000
        0.000000000000000
        0.000000000000000
        0.000000000000000
        0.000932267391266
        0.001246833820620
        0.000372554142202
       -0.000426378509532
        0.000000000000000
        0.000000000000000
        0.000000000000000
        0.000000000000000
        0.000000000000000
        0.000000000000000
        0.000000000000000
        0.000000000000000
        0.000000000000000
        0.000000000000000
        0.000000000000000
        0.000000000000000
        0.000000000000000
        0.000000000000000
        0.000000000000000
        0.000000000000000
       -0.000503653999587
       -0.000684718380855
        0.000000000000000
        0.000000000000000
        0.000000000000000
        0.000000000000000
        0.000000000000000
        0.000761168316036
       -0.000168790899972
       -0.003449260722525
       -0.005263249784058
       -0.003392042649253
       -0.001119644398594
        0.000000000000000
        0.000000000000000
        0.001702079196425
        0.004268926204701
        0.001290223198260
       -0.016656336352946
       -0.027699498339481
       -0.014090826715427
       -0.004075079892294
        0.000000000000000
        0.000000000000000
        0.004701927517759
        0.014143136832057
        0.013084226019949
       -0.051359966165074
       -0.095123653019540
       -0.035557123342035
       -0.008411324394821
       -0.001314697304461
        0.001212845548667
        0.007393757826973
        0.026958194083621
        0.046486630455941
       -0.052580815205019
       -0.101350255481024
       -0.039984881563287
       -0.009549167260699
       -0.001462128538991
        0.001053225906642
        0.006210285742910
        0.022990723913257
        0.048924448333379
       -0.003503658860009
       -0.036265554958957
       -0.020040939515341
       -0.005771645307902
        0.000000000000000
        0.000000000000000
        0.002917450942041
        0.009126951556967
        0.015133098910702
        0.003629648873280
       -0.007188025881544
       -0.005889046798884
       -0.001953381977890
        0.000000000000000
        0.000000000000000
        0.000802038442274
        0.002234413698999
        0.003062211132148
        0.001293851288799
       -0.000900926890172
       -0.001012471097501
        0.000000000000000
        0.000000000000000
        0.000000000000000
        0.000000000000000
        0.000000000000000
        0.000423246983036
        0.000254371009263
        0.000000000000000
        0.000000000000000
        0.000000000000000
        0.000000000000000
        0.000000000000000
        0.000000000000000
        0.000000000000000
        0.000129666404007
       -0.000368905487201
       -0.000624594873851
        0.000000000000000
        0.000000000000000
        0.000000000000000
        0.000000000000000
        0.000787620241664
        0.001938366251679
        0.001564914379181
       -0.002140723387795
       -0.004701866034203
       -0.003256576881260
       -0.001112999227976
        0.000000000000000
        0.000000000000000
        0.003284896744150
        0.009704702873856
        0.012433428356366
       -0.009802592330859
       -0.024770867338621
       -0.013820148647746
       -0.004175946299711
        0.000000000000000
        0.001301189140100
        0.008093198795629
        0.031016004749095
        0.062348075497499
       -0.026004340001688
       -0.089481400709641
       -0.037458476380547
       -0.009159176938778
       -0.001424474403209
        0.001956879878406
        0.011355587455720
        0.051998401633990
        0.137941482211578
        0.000000000000000
       -0.137941482211577
       -0.051998401633990
       -0.011355587455720
       -0.001956879878406
        0.001324186728488
        0.008546937462078
        0.034428633330422
        0.081582172178419
        0.026004340001687
       -0.054448846966277
       -0.027986161698969
       -0.007480959318930
       -0.001200901465379
        0.000000000000000
        0.003707625584804
        0.012125910399735
        0.021741024288495
        0.009802592330859
       -0.009403585306240
       -0.008010464625845
       -0.002816576029243
        0.000000000000000
        0.000000000000000
        0.000938370867877
        0.002788256166353
        0.004089626557503
        0.002140723387795
       -0.000952674902481
       -0.001470045536772
       -0.000612991881565
        0.000000000000000
        0.000000000000000
        0.000000000000000
        0.000000000000000
        0.000524307199130
        0.000368905487201
       -0.000029378729286
        0.000000000000000
        0.000000000000000
        0.000000000000000
        0.000000000000000
        0.000000000000000
        0.000000000000000
        0.000262701913543
        0.000008725529743
        0.000000000000000
        0.000000000000000
        0.000000000000000
        0.000000000000000
        0.000000000000000
        0.000814835814302
        0.002232581758429
        0.002712034338669
        0.000312309067503
       -0.001905390527030
       -0.001541033891080
        0.000000000000000
        0.000000000000000
        0.000000000000000
        0.003232974480648
        0.010408128418341
        0.017833825556131
        0.004318897370691
       -0.008284378658999
       -0.006628745103935
       -0.002183458770245
        0.000000000000000
        0.001185384149024
        0.007322779889796
        0.029342291524217
        0.072275398921878
        0.024226640952931
       -0.024548771730594
       -0.017059950990243
       -0.005230966579102
        0.000000000000000
        0.001412530319921
        0.009246378430734
        0.038486443995896
        0.097443617219977
        0.052580815205018
       -0.042579992194895
       -0.025459756516230
       -0.007090968997008
       -0.001163247329597
        0.000000000000000
        0.006300684369246
        0.022957753673527
        0.047730100669602
        0.030636984072151
       -0.026076194235717
       -0.016775892095439
       -0.005121741237886
       -0.000923912751205
        0.000000000000000
        0.002434761551710
        0.008248865698119
        0.014182181342283
        0.008707790108975
       -0.005267426127353
       -0.005444253259881
       -0.002075345530394
        0.000000000000000
        0.000000000000000
        0.000000000000000
        0.001792336672545
        0.002975108317173
        0.001843100366223
       -0.000510995686759
       -0.001074952808175
       -0.000497229857983
        0.000000000000000
        0.000000000000000
        0.000000000000000
        0.000000000000000
        0.000000000000000
        0.000240557460581
       -0.000001230515724
        0.000000000000000
        0.000000000000000
        0.000000000000000
        0.000000000000000
        0.000000000000000
        0.000000000000000
        0.000000000000000
        0.000000000000000
        0.000000000000000
        0.000000000000000
        0.000000000000000
        0.000000000000000
        0.000000000000000
        0.000000000000000
        0.001211564512448
        0.001790111358461
        0.000856047075044
       -0.000232893851006
        0.000000000000000
        0.000000000000000
        0.000000000000000
        0.000000000000000
        0.001633162586065
        0.005230252371075
        0.008393022549746
        0.004325343896843
       -0.000919257892087
       -0.001608444894738
        0.000000000000000
        0.000000000000000
        0.000000000000000
        0.003640323746712
        0.012263285049548
        0.023350249043377
        0.013226197540033
       -0.002123512836774
       -0.004273740231657
       -0.001643887342253
        0.000000000000000
        0.000000000000000
        0.004281306723849
        0.014657074673956
        0.028811167772508
        0.019820856666449
       -0.003864847304962
       -0.006335637032810
       -0.002479603161426
        0.000000000000000
        0.000000000000000
        0.002617237575823
        0.009045297650530
        0.016265705861955
        0.011720122927513
       -0.003401843605638
       -0.004816863467523
       -0.001937585318046
        0.000000000000000
        0.000000000000000
        0.000000000000000
        0.003127294415781
        0.005690815310961
        0.003996093744302
       -0.000946600967720
       -0.001887019356025
       -0.000815972373574
        0.000000000000000
        0.000000000000000
        0.000000000000000
        0.000000000000000
        0.001206244084576
        0.000945656487379
       -0.000087372929796
       -0.000394374299957
        0.000000000000000
        0.000000000000000
        0.000000000000000
        0.000000000000000
        0.000000000000000
        0.000000000000000
        0.000000000000000
        0.000000000000000
        0.000000000000000
        0.000000000000000
        0.000000000000000
        0.000000000000000
        0.000000000000000
        0.000000000000000
        0.000000000000000
        0.000000000000000
        0.000000000000000
        0.000000000000000
        0.000000000000000
        0.000000000000000
        0.000000000000000
        0.000000000000000
        0.000000000000000
        0.000572364086679
        0.000395330543872
        0.000000000000000
        0.000000000000000
        0.000000000000000
        0.000000000000000
        0.000000000000000
        0.000000000000000
        0.001413651699561
        0.002269635729878
        0.001501487784132
        0.000218118724813
        0.000000000000000
        0.000000000000000
        0.000000000000000
        0.000000000000000
        0.001038061323388
        0.003119455395909
        0.004922131246675
        0.003441551625650
        0.000429320767581
       -0.000550449887270
        0.000000000000000
        0.000000000000000
        0.000000000000000
        0.001148771903994
        0.003580216940466
        0.005847336572432
        0.004328545960075
        0.000495584465714
       -0.000914793033887
       -0.000490855096655
        0.000000000000000
        0.000000000000000
        0.000000000000000
        0.002127339271252
        0.003764677246126
        0.002901369412496
        0.000236430280882
       -0.000775023703588
       -0.000421737900356
        0.000000000000000
        0.000000000000000
        0.000000000000000
        0.000000000000000
        0.001358770659170
        0.001163936122447
        0.000074795962444
       -0.000326031047302
        0.000000000000000
        0.000000000000000
        0.000000000000000
        0.000000000000000
        0.000000000000000
        0.000000000000000
        0.000262586263468
        0.000043959336353
        0.000000000000000
        0.000000000000000
        0.000000000000000
        0.000000000000000
        0.000000000000000
        0.000000000000000
        0.000000000000000
        0.000000000000000
        0.000000000000000
        0.000000000000000
        0.000000000000000
        0.000000000000000
        0.000000000000000
        0.000000000000000
        0.000000000000000
        0.000000000000000
        0.000000000000000
        0.000000000000000
        0.000000000000000
        0.000000000000000
        0.000000000000000
        0.000000000000000
        0.000000000000000
        0.000000000000000
        0.000000000000000
        0.000000000000000
        0.000000000000000
        0.000000000000000
        0.000000000000000
        0.000000000000000
        0.000000000000000
        0.000000000000000
        0.000000000000000
        0.000000000000000
        0.000000000000000
        0.000000000000000
        0.000000000000000
        0.000000000000000
        0.000000000000000
        0.000000000000000
        0.000000000000000
        0.000000000000000
        0.000704976841339
        0.000570278698962
        0.000000000000000
        0.000000000000000
        0.000000000000000
        0.000000000000000
        0.000000000000000
        0.000000000000000
        0.000000000000000
        0.000802560753047
        0.000745927458624
        0.000198185368980
        0.000000000000000
        0.000000000000000
        0.000000000000000
        0.000000000000000
        0.000000000000000
        0.000000000000000
        0.000000000000000
        0.000430467423065
        0.000148341100197
        0.000000000000000
        0.000000000000000
        0.000000000000000
        0.000000000000000
        0.000000000000000
        0.000000000000000
        0.000000000000000
        0.000000000000000
        0.000000000000000
        0.000000000000000
        0.000000000000000
        0.000000000000000
        0.000000000000000
        0.000000000000000
        0.000000000000000
        0.000000000000000
        0.000000000000000
        0.000000000000000
        0.000000000000000
        0.000000000000000
        0.000000000000000
        0.000000000000000
        0.000000000000000
        0.000000000000000
        0.000000000000000
        0.000000000000000
        0.000000000000000
        0.000000000000000
        0.000000000000000
        0.000000000000000
END_DATAGRID_3D
END_BLOCK_DATAGRID_3D
