ATOMS
         C    7.558905    7.558905    7.558905
         H    8.755769    8.755769    8.755769
         H    6.362040    6.362040    8.755769
         H    8.755769    6.362040    6.362040
         H    6.362040    8.755769    6.362040
BEGIN_BLOCK_DATAGRID_3D
units: coords = b, function = 1/hbar/H*b^-2
BEGIN_DATAGRID_3D_function
      9      9      9
0.0 0.0 0.0
   15.117809    0.000000    0.000000
    0.000000   15.117809    0.000000
    0.000000    0.000000   15.117809
        0.000000000000000
        0.000000000000000
        0.000000000000000
        0.000000000000000
        0.000000000000000
        0.000000000000000
        0.000000000000000
        0.000000000000000
        0.000000000000000
        0.000000000000000
        0.000000000000000
        0.000000000000000
        0.000000000000000
        0.000000000000000
        0.000000000000000
        0.000000000000000
        0.000000000000000
        0.000000000000000
        0.000000000000000
        0.000000000000000
        0.000000000000000
        0.000000000000000
        0.000000000000000
        0.000000000000000
        0.000000000000000
        0.000000000000000
        0.000000000000000
        0.000000000000000
        0.000000000000000
        0.000000000000000
        0.000000000000000
       -0.000000003094956
        0.000000001990918
        0.000000000000000
        0.000000000000000
        0.000000000000000
        0.000000000000000
        0.000000000000000
        0.000000000000000
       -0.000000002409565
       -0.000000000003966
        0.000000002409165
        0.000000000000000
        0.000000000000000
        0.000000000000000
        0.000000000000000
        0.000000000000000
        0.000000000000000
       -0.000000001995757
        0.000000003087557
        0.000000000000000
        0.000000000000000
        0.000000000000000
        0.000000000000000
        0.000000000000000
        0.000000000000000
        0.000000000000000
        0.000000000000000
        0.000000000000000
        0.000000000000000
        0.000000000000000
        0.000000000000000
        0.000000000000000
        0.000000000000000
        0.000000000000000
        0.000000000000000
        0.000000000000000
        0.000000000000000
        0.000000000000000
        0.000000000000000
        0.000000000000000
        0.000000000000000
        0.000000000000000
        0.000000000000000
        0.000000000000000
        0.000000000000000
        0.000000000000000
        0.000000000000000
        0.000000000000000
        0.000000000000000
        0.000000000000000
        0.000000000000000
        0.000000000000000
        0.000000000000000
        0.000000000000000
        0.000000000000000
        0.000000000000000
        0.000000000000000
        0.000000000000000
        0.000000000000000
        0.000000000000000
        0.000000000000000
        0.000000000000000
        0.000000000000000
       -0.000000001764736
        0.000000001604764
        0.000000000000000
        0.000000000000000
        0.000000000000000
        0.000000000000000
        0.000000000000000
        0.000000000000000
       -0.000000005372538
       -0.000000001981273
        0.000000000908699
        0.000000003933679
        0.000000000000000
        0.000000000000000
        0.000000000000000
        0.000000000000000
       -0.000000004459577
       -0.000000011945146
       -0.000000026286440
        0.000000022264484
        0.000000010255076
       -0.000000000075483
        0.000000000000000
        0.000000000000000
        0.000000000202817
       -0.000000008382647
       -0.000000045931612
       -0.000000000066535
        0.000000046015413
        0.000000008444755
       -0.000000000199382
        0.000000000000000
        0.000000000000000
        0.000000000079565
       -0.000000010194335
       -0.000000022261910
        0.000000026262939
        0.000000011978197
        0.000000004486439
        0.000000000000000
        0.000000000000000
        0.000000000000000
        0.000000000000000
       -0.000000003921199
       -0.000000000905421
        0.000000001978456
        0.000000005389824
        0.000000000000000
        0.000000000000000
        0.000000000000000
        0.000000000000000
        0.000000000000000
        0.000000000000000
       -0.000000001605555
        0.000000001763910
        0.000000000000000
        0.000000000000000
        0.000000000000000
        0.000000000000000
        0.000000000000000
        0.000000000000000
        0.000000000000000
        0.000000000000000
        0.000000000000000
        0.000000000000000
        0.000000000000000
        0.000000000000000
        0.000000000000000
        0.000000000000000
        0.000000000000000
        0.000000000000000
        0.000000000000000
        0.000000000000000
        0.000000000000000
        0.000000000000000
        0.000000000000000
        0.000000000000000
        0.000000000000000
        0.000000000000000
        0.000000000000000
       -0.000000003736759
       -0.000000003357112
        0.000000002286967
        0.000000002308150
        0.000000000000000
        0.000000000000000
        0.000000000000000
        0.000000000000000
       -0.000000007765682
        0.000000004103200
        0.000000030602453
       -0.000000027246699
       -0.000000015833173
        0.000000001737314
        0.000000000000000
        0.000000000000000
       -0.000000001150101
       -0.000000006276964
        0.000000332126726
        0.000000526320893
       -0.000000504488142
       -0.000000302229900
        0.000000012869754
        0.000000000000000
        0.000000000000000
       -0.000000011345877
        0.000000194191647
        0.000001263330140
        0.000000001565937
       -0.000001267497463
       -0.000000196259717
        0.000000011440667
        0.000000000000000
        0.000000000000000
       -0.000000012809934
        0.000000299925149
        0.000000505844451
       -0.000000525507231
       -0.000000334264916
        0.000000006104274
        0.000000001175545
        0.000000000000000
        0.000000000000000
       -0.000000001726887
        0.000000015670912
        0.000000027550326
       -0.000000030504530
       -0.000000004262102
        0.000000007802155
        0.000000000000000
        0.000000000000000
        0.000000000000000
        0.000000000000000
       -0.000000002304280
       -0.000000002283715
        0.000000003357651
        0.000000003743202
        0.000000000000000
        0.000000000000000
        0.000000000000000
        0.000000000000000
        0.000000000000000
        0.000000000000000
        0.000000000000000
        0.000000000000000
        0.000000000000000
        0.000000000000000
        0.000000000000000
        0.000000000000000
        0.000000000000000
        0.000000000000000
        0.000000000000000
        0.000000000000000
       -0.000000001140274
       -0.000000000039252
        0.000000000000000
        0.000000000000000
        0.000000000000000
        0.000000000000000
        0.000000000000000
       -0.000000002583853
       -0.000000006721512
        0.000000001081404
       -0.000000000586361
        0.000000003198812
       -0.000000000020909
        0.000000000000000
        0.000000000000000
       -0.000000001700951
       -0.000000000289897
        0.000000087206978
       -0.000000051243799
       -0.000000180556424
       -0.000000014639852
        0.000000001532307
        0.000000000000000
        0.000000000000000
       -0.000000018095183
        0.000000310607711
        0.000000884491730
       -0.000001586642290
       -0.000002863573542
       -0.000000284513379
        0.000000013414332
       -0.000000000131112
       -0.000000000830247
       -0.000000033037653
        0.000001026979547
        0.000002783917748
        0.000000029870627
       -0.000002808400068
       -0.000001034437816
        0.000000033039513
        0.000000000848372
        0.000000000130746
       -0.000000013304463
        0.000000281737329
        0.000002848251822
        0.000001600517194
       -0.000000887897408
       -0.000000313304882
        0.000000018174511
        0.000000000000000
        0.000000000000000
       -0.000000001505524
        0.000000014495241
        0.000000179577193
        0.000000052322200
       -0.000000087649424
        0.000000000153292
        0.000000001716975
        0.000000000000000
        0.000000000000000
        0.000000000021066
       -0.000000003184569
        0.000000000602405
       -0.000000001059099
        0.000000006728738
        0.000000002591980
        0.000000000000000
        0.000000000000000
        0.000000000000000
        0.000000000000000
        0.000000000000000
        0.000000000038775
        0.000000001139372
        0.000000000000000
        0.000000000000000
        0.000000000000000
        0.000000000000000
        0.000000000000000
        0.000000000000000
        0.000000000000000
       -0.000000000038775
       -0.000000003383780
       -0.000000000039252
        0.000000000000000
        0.000000000000000
        0.000000000000000
        0.000000000000000
       -0.000000000021066
       -0.000000004614620
        0.000000001584323
       -0.000000000780010
        0.000000001597464
       -0.000000004618480
       -0.000000000020909
        0.000000000000000
        0.000000000000000
       -0.000000003807248
        0.000000033673064
       -0.000000066250133
       -0.000000186286387
       -0.000000067396403
        0.000000034013735
       -0.000000003821272
        0.000000000000000
       -0.000000000130746
       -0.000000021578303
        0.000000450364002
       -0.000001445753903
       -0.000003787641247
       -0.000001460054024
        0.000000453242895
       -0.000000021574465
       -0.000000000131112
       -0.000000000000000
        0.000000000000000
        0.000000000000000
       -0.000000000000000
        0.000000000000000
       -0.000000000000000
       -0.000000000000000
        0.000000000000000
        0.000000000000000
        0.000000000130746
        0.000000021578303
       -0.000000450364002
        0.000001445753903
        0.000003787641247
        0.000001460054024
       -0.000000453242895
        0.000000021574465
        0.000000000131112
        0.000000000000000
        0.000000003807248
       -0.000000033673064
        0.000000066250133
        0.000000186286387
        0.000000067396403
       -0.000000034013735
        0.000000003821272
        0.000000000000000
        0.000000000000000
        0.000000000021066
        0.000000004614620
       -0.000000001584323
        0.000000000780010
       -0.000000001597464
        0.000000004618480
        0.000000000020909
        0.000000000000000
        0.000000000000000
        0.000000000000000
        0.000000000000000
        0.000000000038775
        0.000000003383780
        0.000000000039252
        0.000000000000000
        0.000000000000000
        0.000000000000000
        0.000000000000000
        0.000000000000000
        0.000000000000000
       -0.000000000038775
       -0.000000001139372
        0.000000000000000
        0.000000000000000
        0.000000000000000
        0.000000000000000
        0.000000000000000
       -0.000000000021066
        0.000000003184569
       -0.000000000602405
        0.000000001059099
       -0.000000006728738
       -0.000000002591980
        0.000000000000000
        0.000000000000000
        0.000000000000000
        0.000000001505524
       -0.000000014495241
       -0.000000179577193
       -0.000000052322200
        0.000000087649424
       -0.000000000153292
       -0.000000001716975
        0.000000000000000
       -0.000000000130746
        0.000000013304463
       -0.000000281737329
       -0.000002848251822
       -0.000001600517194
        0.000000887897408
        0.000000313304882
       -0.000000018174511
        0.000000000000000
        0.000000000830247
        0.000000033037653
       -0.000001026979547
       -0.000002783917748
       -0.000000029870627
        0.000002808400068
        0.000001034437816
       -0.000000033039513
       -0.000000000848372
        0.000000000000000
        0.000000018095183
       -0.000000310607711
       -0.000000884491730
        0.000001586642290
        0.000002863573542
        0.000000284513379
       -0.000000013414332
        0.000000000131112
        0.000000000000000
        0.000000001700951
        0.000000000289897
       -0.000000087206978
        0.000000051243799
        0.000000180556424
        0.000000014639852
       -0.000000001532307
        0.000000000000000
        0.000000000000000
        0.000000000000000
        0.000000002583853
        0.000000006721512
       -0.000000001081404
        0.000000000586361
       -0.000000003198812
        0.000000000020909
        0.000000000000000
        0.000000000000000
        0.000000000000000
        0.000000000000000
        0.000000000000000
        0.000000001140274
        0.000000000039252
        0.000000000000000
        0.000000000000000
        0.000000000000000
        0.000000000000000
        0.000000000000000
        0.000000000000000
        0.000000000000000
        0.000000000000000
        0.000000000000000
        0.000000000000000
        0.000000000000000
        0.000000000000000
        0.000000000000000
        0.000000000000000
        0.000000002304280
        0.000000002283715
       -0.000000003357651
       -0.000000003743202
        0.000000000000000
        0.000000000000000
        0.000000000000000
        0.000000000000000
        0.000000001726887
       -0.000000015670912
       -0.000000027550326
        0.000000030504530
        0.000000004262102
       -0.000000007802155
        0.000000000000000
        0.000000000000000
        0.000000000000000
        0.000000012809934
       -0.000000299925149
       -0.000000505844451
        0.000000525507231
        0.000000334264916
       -0.000000006104274
       -0.000000001175545
        0.000000000000000
        0.000000000000000
        0.000000011345877
       -0.000000194191647
       -0.000001263330140
       -0.000000001565937
        0.000001267497463
        0.000000196259717
       -0.000000011440667
        0.000000000000000
        0.000000000000000
        0.000000001150101
        0.000000006276964
       -0.000000332126726
       -0.000000526320893
        0.000000504488142
        0.000000302229900
       -0.000000012869754
        0.000000000000000
        0.000000000000000
        0.000000000000000
        0.000000007765682
       -0.000000004103200
       -0.000000030602453
        0.000000027246699
        0.000000015833173
       -0.000000001737314
        0.000000000000000
        0.000000000000000
        0.000000000000000
        0.000000000000000
        0.000000003736759
        0.000000003357112
       -0.000000002286967
       -0.000000002308150
        0.000000000000000
        0.000000000000000
        0.000000000000000
        0.000000000000000
        0.000000000000000
        0.000000000000000
        0.000000000000000
        0.000000000000000
        0.000000000000000
        0.000000000000000
        0.000000000000000
        0.000000000000000
        0.000000000000000
        0.000000000000000
        0.000000000000000
        0.000000000000000
        0.000000000000000
        0.000000000000000
        0.000000000000000
        0.000000000000000
        0.000000000000000
        0.000000000000000
        0.000000000000000
        0.000000001605555
       -0.000000001763910
        0.000000000000000
        0.000000000000000
        0.000000000000000
        0.000000000000000
        0.000000000000000
        0.000000000000000
        0.000000003921199
        0.000000000905421
       -0.000000001978456
       -0.000000005389824
        0.000000000000000
        0.000000000000000
        0.000000000000000
        0.000000000000000
       -0.000000000079565
        0.000000010194335
        0.000000022261910
       -0.000000026262939
       -0.000000011978197
       -0.000000004486439
        0.000000000000000
        0.000000000000000
        0.000000000000000
       -0.000000000202817
        0.000000008382647
        0.000000045931612
        0.000000000066535
       -0.000000046015413
       -0.000000008444755
        0.000000000199382
        0.000000000000000
        0.000000000000000
        0.000000000000000
        0.000000004459577
        0.000000011945146
        0.000000026286440
       -0.000000022264484
       -0.000000010255076
        0.000000000075483
        0.000000000000000
        0.000000000000000
        0.000000000000000
        0.000000000000000
        0.000000005372538
        0.000000001981273
       -0.000000000908699
       -0.000000003933679
        0.000000000000000
        0.000000000000000
        0.000000000000000
        0.000000000000000
        0.000000000000000
        0.000000000000000
        0.000000001764736
       -0.000000001604764
        0.000000000000000
        0.000000000000000
        0.000000000000000
        0.000000000000000
        0.000000000000000
        0.000000000000000
        0.000000000000000
        0.000000000000000
        0.000000000000000
        0.000000000000000
        0.000000000000000
        0.000000000000000
        0.000000000000000
        0.000000000000000
        0.000000000000000
        0.000000000000000
        0.000000000000000
        0.000000000000000
        0.000000000000000
        0.000000000000000
        0.000000000000000
        0.000000000000000
        0.000000000000000
        0.000000000000000
        0.000000000000000
        0.000000000000000
        0.000000000000000
        0.000000000000000
        0.000000000000000
        0.000000000000000
        0.000000000000000
        0.000000000000000
        0.000000000000000
        0.000000000000000
        0.000000000000000
        0.000000000000000
        0.000000000000000
        0.000000000000000
        0.000000000000000
        0.000000000000000
        0.000000000000000
        0.000000000000000
        0.000000001995757
       -0.000000003087557
        0.000000000000000
        0.000000000000000
        0.000000000000000
        0.000000000000000
        0.000000000000000
        0.000000000000000
        0.000000000000000
        0.000000002409565
        0.000000000003966
       -0.000000002409165
        0.000000000000000
        0.000000000000000
        0.000000000000000
        0.000000000000000
        0.000000000000000
        0.000000000000000
        0.000000000000000
        0.000000003094956
       -0.000000001990918
        0.000000000000000
        0.000000000000000
        0.000000000000000
        0.000000000000000
        0.000000000000000
        0.000000000000000
        0.000000000000000
        0.000000000000000
        0.000000000000000
        0.000000000000000
        0.000000000000000
        0.000000000000000
        0.000000000000000
        0.000000000000000
        0.000000000000000
        0.000000000000000
        0.000000000000000
        0.000000000000000
        0.000000000000000
        0.000000000000000
        0.000000000000000
        0.000000000000000
        0.000000000000000
        0.000000000000000
        0.000000000000000
        0.000000000000000
        0.000000000000000
        0.000000000000000
        0.000000000000000
        0.000000000000000
END_DATAGRID_3D
END_BLOCK_DATAGRID_3D
