ATOMS
         C    7.558905    7.558905    7.558905
         H    8.755769    8.755769    8.755769
         H    6.362040    6.362040    8.755769
         H    8.755769    6.362040    6.362040
         H    6.362040    8.755769    6.362040
BEGIN_BLOCK_DATAGRID_3D
units: coords = b, function = sqrt(b^-3)
BEGIN_DATAGRID_3D_function
      9      9      9
0.0 0.0 0.0
   15.117809    0.000000    0.000000
    0.000000   15.117809    0.000000
    0.000000    0.000000   15.117809
        0.000000000000000
        0.000000000000000
        0.000000000000000
        0.000000000000000
        0.000000000000000
        0.000000000000000
        0.000000000000000
        0.000000000000000
        0.000000000000000
        0.000000000000000
        0.000000000000000
        0.000000000000000
        0.000000000000000
        0.000000000000000
        0.000000000000000
        0.000000000000000
        0.000000000000000
        0.000000000000000
        0.000000000000000
        0.000000000000000
        0.000000000000000
        0.000000000000000
        0.000000000000000
        0.000000000000000
        0.000000000000000
        0.000000000000000
        0.000000000000000
        0.000000000000000
        0.000000000000000
        0.000000000000000
        0.000000000000000
        0.000399831826799
        0.000281018609042
        0.000000000000000
        0.000000000000000
        0.000000000000000
        0.000000000000000
        0.000000000000000
        0.000000000000000
        0.000632470323220
        0.000799052626680
        0.000437762325816
        0.000000000000000
        0.000000000000000
        0.000000000000000
        0.000000000000000
        0.000000000000000
        0.000000000000000
        0.000629902707629
        0.000672126143955
        0.000000000000000
        0.000000000000000
        0.000000000000000
        0.000000000000000
        0.000000000000000
        0.000000000000000
        0.000000000000000
        0.000000000000000
        0.000000000000000
        0.000000000000000
        0.000000000000000
        0.000000000000000
        0.000000000000000
        0.000000000000000
        0.000000000000000
        0.000000000000000
        0.000000000000000
        0.000000000000000
        0.000000000000000
        0.000000000000000
        0.000000000000000
        0.000000000000000
        0.000000000000000
        0.000000000000000
        0.000000000000000
        0.000000000000000
        0.000000000000000
        0.000000000000000
        0.000000000000000
        0.000000000000000
        0.000000000000000
        0.000000000000000
        0.000000000000000
        0.000000000000000
        0.000000000000000
        0.000000000000000
        0.000000000000000
        0.000000000000000
        0.000000000000000
        0.000000000000000
        0.000000000000000
        0.000000000000000
        0.000000000000000
        0.000000000000000
        0.000012626847588
       -0.000023321159314
        0.000000000000000
        0.000000000000000
        0.000000000000000
        0.000000000000000
        0.000000000000000
        0.000000000000000
        0.000453227675387
        0.000499324678525
        0.000218458129662
        0.000024881408817
        0.000000000000000
        0.000000000000000
        0.000000000000000
        0.000000000000000
        0.000932439743752
        0.001981267098560
        0.002275207784416
        0.001272146900905
        0.000348084629924
        0.000046783156029
        0.000000000000000
        0.000000000000000
        0.000564381966100
        0.002009866036664
        0.004124839937800
        0.004637518008753
        0.002655746816135
        0.000821285121232
        0.000127110046928
        0.000000000000000
        0.000000000000000
        0.000596962080720
        0.002127585028499
        0.004225373241606
        0.004520855617447
        0.002517035923551
        0.000752940481697
        0.000000000000000
        0.000000000000000
        0.000000000000000
        0.000000000000000
        0.001118942783613
        0.002273127172323
        0.002356653915371
        0.001243731306053
        0.000000000000000
        0.000000000000000
        0.000000000000000
        0.000000000000000
        0.000000000000000
        0.000000000000000
        0.000677251665435
        0.000691948141501
        0.000000000000000
        0.000000000000000
        0.000000000000000
        0.000000000000000
        0.000000000000000
        0.000000000000000
        0.000000000000000
        0.000000000000000
        0.000000000000000
        0.000000000000000
        0.000000000000000
        0.000000000000000
        0.000000000000000
        0.000000000000000
        0.000000000000000
        0.000000000000000
        0.000000000000000
        0.000000000000000
        0.000000000000000
        0.000000000000000
        0.000000000000000
        0.000000000000000
        0.000000000000000
        0.000000000000000
        0.000000000000000
       -0.000139736236673
       -0.000357213470274
       -0.000424223149981
       -0.000248484788987
        0.000000000000000
        0.000000000000000
        0.000000000000000
        0.000000000000000
        0.000456118130139
        0.000738902227016
        0.000276539503794
       -0.000539562992397
       -0.000502426389319
       -0.000187037343445
        0.000000000000000
        0.000000000000000
        0.000742106754067
        0.002841582418839
        0.006161104947331
        0.006733026068736
        0.002124246538467
        0.000036049384415
       -0.000152099562506
        0.000000000000000
        0.000000000000000
        0.001730915636054
        0.006976686733267
        0.017528273895537
        0.021238276445710
        0.009118123642635
        0.001833718651864
        0.000151298879799
        0.000000000000000
        0.000000000000000
        0.001913690206254
        0.007786073008428
        0.019084043510821
        0.019999432025798
        0.009020620585511
        0.002257623525434
        0.000286484071045
        0.000000000000000
        0.000000000000000
        0.001026467711596
        0.003994281693123
        0.008430370670708
        0.008641536689329
        0.004410433771260
        0.001184986586689
        0.000000000000000
        0.000000000000000
        0.000000000000000
        0.000000000000000
        0.001097926272587
        0.002222778919993
        0.002288203969279
        0.001195456909412
        0.000000000000000
        0.000000000000000
        0.000000000000000
        0.000000000000000
        0.000000000000000
        0.000000000000000
        0.000000000000000
        0.000000000000000
        0.000000000000000
        0.000000000000000
        0.000000000000000
        0.000000000000000
        0.000000000000000
        0.000000000000000
        0.000000000000000
        0.000000000000000
       -0.000346030178193
       -0.000311385523469
        0.000000000000000
        0.000000000000000
        0.000000000000000
        0.000000000000000
        0.000000000000000
       -0.000357009587854
       -0.001087020786328
       -0.001878103608866
       -0.001690047101698
       -0.000851960730144
       -0.000258109131221
        0.000000000000000
        0.000000000000000
        0.000046770503792
       -0.000222319359371
       -0.001935525418248
       -0.005090020769583
       -0.005270245075118
       -0.002474692239210
       -0.000708479952122
        0.000000000000000
        0.000000000000000
        0.001005666431016
        0.003603713226013
        0.007033976457977
        0.002570863007935
       -0.006866159624078
       -0.003592312218639
       -0.001024669913409
       -0.000179232275128
        0.000391175299229
        0.002785522208992
        0.013746711926097
        0.045023819585451
        0.056349800107070
        0.013477897532486
       -0.000056710112795
       -0.000579848345349
       -0.000144515227011
        0.000436080846796
        0.003250653871217
        0.016666221174427
        0.055779472630342
        0.056225715433253
        0.017916932386208
        0.002700325206509
        0.000113168052037
        0.000000000000000
        0.000000000000000
        0.001871757596074
        0.007593239855220
        0.018504923795208
        0.019055001031996
        0.008360929327415
        0.002002982025283
        0.000227613249049
        0.000000000000000
        0.000000000000000
        0.000573983147952
        0.002035381977878
        0.003993330264863
        0.004189044639628
        0.002267041957307
        0.000645885350813
        0.000000000000000
        0.000000000000000
        0.000000000000000
        0.000000000000000
        0.000000000000000
        0.000583436733102
        0.000612624218626
        0.000000000000000
        0.000000000000000
        0.000000000000000
        0.000000000000000
        0.000000000000000
        0.000000000000000
        0.000000000000000
       -0.000449569736746
       -0.000680676385293
       -0.000463606610151
        0.000000000000000
        0.000000000000000
        0.000000000000000
        0.000000000000000
       -0.000237365719898
       -0.001037529034807
       -0.002705903439249
       -0.003949513136824
       -0.003084774292016
       -0.001400548699225
       -0.000366090742757
        0.000000000000000
        0.000000000000000
       -0.000454540915492
       -0.002760258389937
       -0.009949969758080
       -0.018084558556422
       -0.012835854902022
       -0.004869953002817
       -0.001209747282667
        0.000000000000000
        0.000057102662206
        0.000123963517845
       -0.001867482859022
       -0.016657389684557
       -0.047969369488860
       -0.033539928907316
       -0.010169243697554
       -0.002156008381825
       -0.000297461312128
        0.000325586215643
        0.001903442349479
        0.008826135720586
        0.023652319569475
        0.000080394734706
       -0.024037933373976
       -0.009151242382559
       -0.002022319971337
       -0.000350876588458
        0.000379783452225
        0.002666900409419
        0.012970345901781
        0.041337329180958
        0.048018260359813
        0.008459219585999
       -0.001353861584813
       -0.000805797282445
       -0.000173219005752
        0.000000000000000
        0.001628352039942
        0.006462007294793
        0.015808948118104
        0.018097520727657
        0.006879830339885
        0.001024386076261
       -0.000033829376871
        0.000000000000000
        0.000000000000000
        0.000527198116406
        0.001839188631061
        0.003675281096066
        0.003951596577447
        0.002099238518661
        0.000568132169294
        0.000059230558360
        0.000000000000000
        0.000000000000000
        0.000000000000000
        0.000000000000000
        0.000561779950080
        0.000680845284213
        0.000349719506824
        0.000000000000000
        0.000000000000000
        0.000000000000000
        0.000000000000000
        0.000000000000000
        0.000000000000000
       -0.000465783587670
       -0.000566970105914
        0.000000000000000
        0.000000000000000
        0.000000000000000
        0.000000000000000
        0.000000000000000
       -0.000302480450306
       -0.001277854586981
       -0.003003705205156
       -0.003909887039365
       -0.002755915648006
       -0.001095315827969
        0.000000000000000
        0.000000000000000
        0.000000000000000
       -0.000839403353216
       -0.004280847525662
       -0.012854576606243
       -0.017672158609695
       -0.011056428014730
       -0.004207753485439
       -0.000963127971484
        0.000000000000000
       -0.000063622872179
       -0.000980999628727
       -0.007787277079149
       -0.035000125778296
       -0.052613401318476
       -0.028512232582422
       -0.009235299610201
       -0.002070164542697
        0.000000000000000
        0.000045710815202
        0.000005341718272
       -0.002643848883338
       -0.020343880089049
       -0.056300909236115
       -0.038558606853803
       -0.011466395169573
       -0.002381957318921
       -0.000326165090870
        0.000000000000000
        0.000841062399700
        0.002687950627658
        0.003395820606608
       -0.006123103574652
       -0.014256636895320
       -0.005621655124472
       -0.001384188811167
       -0.000222175502183
        0.000000000000000
        0.000647869323757
        0.002345192750972
        0.004589209556539
        0.003724806938830
       -0.000476954625691
       -0.000966624435210
       -0.000385429207482
        0.000000000000000
        0.000000000000000
        0.000000000000000
        0.000790377406249
        0.001568355669790
        0.001601961122078
        0.000683370067271
        0.000065169190971
       -0.000029357637159
        0.000000000000000
        0.000000000000000
        0.000000000000000
        0.000000000000000
        0.000000000000000
        0.000300723714580
        0.000191886392870
        0.000000000000000
        0.000000000000000
        0.000000000000000
        0.000000000000000
        0.000000000000000
        0.000000000000000
        0.000000000000000
        0.000000000000000
        0.000000000000000
        0.000000000000000
        0.000000000000000
        0.000000000000000
        0.000000000000000
        0.000000000000000
       -0.000734176187422
       -0.001702364382441
       -0.002075197282947
       -0.001310023488448
        0.000000000000000
        0.000000000000000
        0.000000000000000
        0.000000000000000
       -0.000547392020418
       -0.002507148333177
       -0.006198754618426
       -0.007870159870910
       -0.005150557739046
       -0.001886329584937
        0.000000000000000
        0.000000000000000
        0.000000000000000
       -0.000881335963396
       -0.004473680678870
       -0.013433696321856
       -0.018616589603497
       -0.011716119272826
       -0.004462394985590
       -0.001021998793481
        0.000000000000000
        0.000000000000000
       -0.000557104511605
       -0.003274937828410
       -0.011669295535513
       -0.021225314274475
       -0.015074148204772
       -0.005679285578419
       -0.001394875539337
        0.000000000000000
        0.000000000000000
       -0.000047466926518
       -0.000718709027238
       -0.003507420809039
       -0.008098239899489
       -0.007871446239277
       -0.003477366058834
       -0.000941809597097
        0.000000000000000
        0.000000000000000
        0.000000000000000
        0.000220090271941
       -0.000009618772527
       -0.001041832686509
       -0.001730977385709
       -0.001042644827901
       -0.000320298209413
        0.000000000000000
        0.000000000000000
        0.000000000000000
        0.000000000000000
        0.000253095901476
        0.000145454268888
       -0.000105312239758
       -0.000128932465693
        0.000000000000000
        0.000000000000000
        0.000000000000000
        0.000000000000000
        0.000000000000000
        0.000000000000000
        0.000000000000000
        0.000000000000000
        0.000000000000000
        0.000000000000000
        0.000000000000000
        0.000000000000000
        0.000000000000000
        0.000000000000000
        0.000000000000000
        0.000000000000000
        0.000000000000000
        0.000000000000000
        0.000000000000000
        0.000000000000000
        0.000000000000000
        0.000000000000000
        0.000000000000000
       -0.000534375087422
       -0.000612613324425
        0.000000000000000
        0.000000000000000
        0.000000000000000
        0.000000000000000
        0.000000000000000
        0.000000000000000
       -0.000755192698448
       -0.001752712634770
       -0.002143647229039
       -0.001358297885089
        0.000000000000000
        0.000000000000000
        0.000000000000000
        0.000000000000000
       -0.000325459383074
       -0.001370057637602
       -0.003235748181899
       -0.004241698017184
       -0.003005909614249
       -0.001202370958853
        0.000000000000000
        0.000000000000000
        0.000000000000000
       -0.000274549569592
       -0.001208206440410
       -0.003155462280982
       -0.004635434568130
       -0.003641282589490
       -0.001653701651162
       -0.000433970231325
        0.000000000000000
        0.000000000000000
        0.000000000000000
       -0.000499071925356
       -0.001499932215098
       -0.002551350271203
       -0.002278823935332
       -0.001134876169097
       -0.000334249924410
        0.000000000000000
        0.000000000000000
        0.000000000000000
        0.000000000000000
       -0.000339868010584
       -0.000711083879911
       -0.000747993519401
       -0.000402298663497
        0.000000000000000
        0.000000000000000
        0.000000000000000
        0.000000000000000
        0.000000000000000
        0.000000000000000
       -0.000091679407962
       -0.000121868081764
        0.000000000000000
        0.000000000000000
        0.000000000000000
        0.000000000000000
        0.000000000000000
        0.000000000000000
        0.000000000000000
        0.000000000000000
        0.000000000000000
        0.000000000000000
        0.000000000000000
        0.000000000000000
        0.000000000000000
        0.000000000000000
        0.000000000000000
        0.000000000000000
        0.000000000000000
        0.000000000000000
        0.000000000000000
        0.000000000000000
        0.000000000000000
        0.000000000000000
        0.000000000000000
        0.000000000000000
        0.000000000000000
        0.000000000000000
        0.000000000000000
        0.000000000000000
        0.000000000000000
        0.000000000000000
        0.000000000000000
        0.000000000000000
        0.000000000000000
        0.000000000000000
        0.000000000000000
        0.000000000000000
        0.000000000000000
        0.000000000000000
        0.000000000000000
        0.000000000000000
        0.000000000000000
        0.000000000000000
       -0.000512249562197
       -0.000626472031243
        0.000000000000000
        0.000000000000000
        0.000000000000000
        0.000000000000000
        0.000000000000000
        0.000000000000000
        0.000000000000000
       -0.000520260109887
       -0.000798883727759
       -0.000551649429143
        0.000000000000000
        0.000000000000000
        0.000000000000000
        0.000000000000000
        0.000000000000000
        0.000000000000000
        0.000000000000000
       -0.000445138290413
       -0.000400517739641
        0.000000000000000
        0.000000000000000
        0.000000000000000
        0.000000000000000
        0.000000000000000
        0.000000000000000
        0.000000000000000
        0.000000000000000
        0.000000000000000
        0.000000000000000
        0.000000000000000
        0.000000000000000
        0.000000000000000
        0.000000000000000
        0.000000000000000
        0.000000000000000
        0.000000000000000
        0.000000000000000
        0.000000000000000
        0.000000000000000
        0.000000000000000
        0.000000000000000
        0.000000000000000
        0.000000000000000
        0.000000000000000
        0.000000000000000
        0.000000000000000
        0.000000000000000
        0.000000000000000
        0.000000000000000
END_DATAGRID_3D
END_BLOCK_DATAGRID_3D
