ATOMS
         C    7.558905    7.558905    7.558905
         H    8.755769    8.755769    8.755769
         H    6.362040    6.362040    8.755769
         H    8.755769    6.362040    6.362040
         H    6.362040    8.755769    6.362040
BEGIN_BLOCK_DATAGRID_3D
units: coords = b, function = sqrt(b^-3)
BEGIN_DATAGRID_3D_function
      9      9      9
0.0 0.0 0.0
   15.117809    0.000000    0.000000
    0.000000   15.117809    0.000000
    0.000000    0.000000   15.117809
        0.000000000000000
        0.000000000000000
        0.000000000000000
        0.000000000000000
        0.000000000000000
        0.000000000000000
        0.000000000000000
        0.000000000000000
        0.000000000000000
        0.000000000000000
        0.000000000000000
        0.000000000000000
        0.000000000000000
        0.000000000000000
        0.000000000000000
        0.000000000000000
        0.000000000000000
        0.000000000000000
        0.000000000000000
        0.000000000000000
        0.000000000000000
        0.000000000000000
        0.000000000000000
        0.000000000000000
        0.000000000000000
        0.000000000000000
        0.000000000000000
        0.000000000000000
        0.000000000000000
        0.000000000000000
        0.000000000000000
        0.000658128161437
        0.000458229855991
        0.000000000000000
        0.000000000000000
        0.000000000000000
        0.000000000000000
        0.000000000000000
        0.000000000000000
        0.001054304367929
        0.001317660174566
        0.000713916627598
        0.000000000000000
        0.000000000000000
        0.000000000000000
        0.000000000000000
        0.000000000000000
        0.000000000000000
        0.001050058916918
        0.001109778711650
        0.000000000000000
        0.000000000000000
        0.000000000000000
        0.000000000000000
        0.000000000000000
        0.000000000000000
        0.000000000000000
        0.000000000000000
        0.000000000000000
        0.000000000000000
        0.000000000000000
        0.000000000000000
        0.000000000000000
        0.000000000000000
        0.000000000000000
        0.000000000000000
        0.000000000000000
        0.000000000000000
        0.000000000000000
        0.000000000000000
        0.000000000000000
        0.000000000000000
        0.000000000000000
        0.000000000000000
        0.000000000000000
        0.000000000000000
        0.000000000000000
        0.000000000000000
        0.000000000000000
        0.000000000000000
        0.000000000000000
        0.000000000000000
        0.000000000000000
        0.000000000000000
        0.000000000000000
        0.000000000000000
        0.000000000000000
        0.000000000000000
        0.000000000000000
        0.000000000000000
        0.000000000000000
        0.000000000000000
        0.000000000000000
        0.000000000000000
        0.000020729906830
       -0.000038063388907
        0.000000000000000
        0.000000000000000
        0.000000000000000
        0.000000000000000
        0.000000000000000
        0.000000000000000
        0.000755636485179
        0.000823377839461
        0.000355849862223
        0.000040008411660
        0.000000000000000
        0.000000000000000
        0.000000000000000
        0.000000000000000
        0.001574347613629
        0.003306785573430
        0.003751246510339
        0.002072352122466
        0.000560375419511
        0.000074345640789
        0.000000000000000
        0.000000000000000
        0.000964956787673
        0.003396020389289
        0.006884855482760
        0.007646328945069
        0.004325946112470
        0.001322001042885
        0.000202248240657
        0.000000000000000
        0.000000000000000
        0.001020638333572
        0.003595233905529
        0.007052446978704
        0.007453937802718
        0.004100364819924
        0.001212609729200
        0.000000000000000
        0.000000000000000
        0.000000000000000
        0.000000000000000
        0.001889338337953
        0.003794066670480
        0.003885795064692
        0.002027628147364
        0.000000000000000
        0.000000000000000
        0.000000000000000
        0.000000000000000
        0.000000000000000
        0.000000000000000
        0.001129073026056
        0.001142348725662
        0.000000000000000
        0.000000000000000
        0.000000000000000
        0.000000000000000
        0.000000000000000
        0.000000000000000
        0.000000000000000
        0.000000000000000
        0.000000000000000
        0.000000000000000
        0.000000000000000
        0.000000000000000
        0.000000000000000
        0.000000000000000
        0.000000000000000
        0.000000000000000
        0.000000000000000
        0.000000000000000
        0.000000000000000
        0.000000000000000
        0.000000000000000
        0.000000000000000
        0.000000000000000
        0.000000000000000
        0.000000000000000
       -0.000233122125864
       -0.000588994161919
       -0.000690990283501
       -0.000400207114865
        0.000000000000000
        0.000000000000000
        0.000000000000000
        0.000000000000000
        0.000769966044561
        0.001233169514767
        0.000455976929931
       -0.000878928444998
       -0.000808647542460
       -0.000297593754562
        0.000000000000000
        0.000000000000000
        0.001268701361349
        0.004800609888817
        0.010279703707821
        0.011100733246670
        0.003461493276262
        0.000057549686041
       -0.000241911377948
        0.000000000000000
        0.000000000000000
        0.002960724050079
        0.011783921786306
        0.029239829384408
        0.035017796076849
        0.014863407602657
        0.002951409959679
        0.000240532148550
        0.000000000000000
        0.000000000000000
        0.003274101337702
        0.013148484404133
        0.031843983421985
        0.032979877148770
        0.014700925335941
        0.003633423509132
        0.000456049798750
        0.000000000000000
        0.000000000000000
        0.001755082430417
        0.006748377133103
        0.014070040666097
        0.014248632981308
        0.007185494866161
        0.001908462152057
        0.000000000000000
        0.000000000000000
        0.000000000000000
        0.000000000000000
        0.001853848274453
        0.003710026871440
        0.003772939037861
        0.001948917427456
        0.000000000000000
        0.000000000000000
        0.000000000000000
        0.000000000000000
        0.000000000000000
        0.000000000000000
        0.000000000000000
        0.000000000000000
        0.000000000000000
        0.000000000000000
        0.000000000000000
        0.000000000000000
        0.000000000000000
        0.000000000000000
        0.000000000000000
        0.000000000000000
       -0.000569704811386
       -0.000507834710478
        0.000000000000000
        0.000000000000000
        0.000000000000000
        0.000000000000000
        0.000000000000000
       -0.000602947837238
       -0.001814194387878
       -0.003096535949822
       -0.002752983188618
       -0.001371160920004
       -0.000410600604908
        0.000000000000000
        0.000000000000000
        0.000079827168646
       -0.000375574874400
       -0.003229049583376
       -0.008392211838922
       -0.008587751923311
       -0.003984246037277
       -0.001126816001430
        0.000000000000000
        0.000000000000000
        0.001720139244004
        0.006084500490787
        0.011729793774744
        0.004238580874047
       -0.011193308002412
       -0.005792471938595
       -0.001628356746605
       -0.000281878382082
        0.000676088859535
        0.004770051956379
        0.023187088384154
        0.075041341516910
        0.092902693118721
        0.022014016528624
       -0.000099119508756
       -0.000921777506009
       -0.000226679581020
        0.000753889869889
        0.005568034639889
        0.028100856633668
        0.093029959640089
        0.092743639288892
        0.029236052398357
        0.004342562674723
        0.000180267292077
        0.000000000000000
        0.000000000000000
        0.003202380608721
        0.012822736866068
        0.030877709244915
        0.031422563636960
        0.013625913740869
        0.003223533555111
        0.000362386016778
        0.000000000000000
        0.000000000000000
        0.000981337540730
        0.003439453257628
        0.006665154387800
        0.006906808904677
        0.003693118526592
        0.001040200198524
        0.000000000000000
        0.000000000000000
        0.000000000000000
        0.000000000000000
        0.000000000000000
        0.000972590604335
        0.001011512790121
        0.000000000000000
        0.000000000000000
        0.000000000000000
        0.000000000000000
        0.000000000000000
        0.000000000000000
        0.000000000000000
       -0.000749495384496
       -0.001122368811641
       -0.000756156475690
        0.000000000000000
        0.000000000000000
        0.000000000000000
        0.000000000000000
       -0.000405907558928
       -0.001753022295326
       -0.004516467123798
       -0.006512326776747
       -0.005024783820740
       -0.002254190984787
       -0.000582538825775
        0.000000000000000
        0.000000000000000
       -0.000777714904017
       -0.004662557343495
       -0.016596700565453
       -0.029817298432778
       -0.020921022828965
       -0.007840298149740
       -0.001924081336412
        0.000000000000000
        0.000099291482449
        0.000210822370398
       -0.003153064488830
       -0.027743569783878
       -0.079095103809394
       -0.054716758399123
       -0.016391069212505
       -0.003425960717452
       -0.000468525981307
        0.000563658849485
        0.003260075702182
        0.014869521960422
        0.039430611587133
       -0.000019253093438
       -0.039202682581442
       -0.014770715964375
       -0.003212225536346
       -0.000551578232875
        0.000656486392393
        0.004566944633481
        0.021876641127093
        0.068899727313440
        0.079164829810831
        0.013825787989389
       -0.002190113247077
       -0.001280612177351
       -0.000271919383721
        0.000000000000000
        0.002785294712542
        0.010914498931093
        0.026371958591384
        0.029839075814973
        0.011215226055204
        0.001648397358812
       -0.000053871866434
        0.000000000000000
        0.000000000000000
        0.000901388940644
        0.003107657536932
        0.006134482296679
        0.006515362320989
        0.003419442958438
        0.000914565027175
        0.000094255049621
        0.000000000000000
        0.000000000000000
        0.000000000000000
        0.000000000000000
        0.000936461977726
        0.001122772214017
        0.000570325963960
        0.000000000000000
        0.000000000000000
        0.000000000000000
        0.000000000000000
        0.000000000000000
        0.000000000000000
       -0.000776534955805
       -0.000936282974669
        0.000000000000000
        0.000000000000000
        0.000000000000000
        0.000000000000000
        0.000000000000000
       -0.000517164971509
       -0.002159271469957
       -0.005013296468615
       -0.006446600507303
       -0.004489411395238
       -0.001764209064201
        0.000000000000000
        0.000000000000000
        0.000000000000000
       -0.001436516949608
       -0.007228749584642
       -0.021449638521613
       -0.029142347658975
       -0.018017742406041
       -0.006772565320490
       -0.001532804658522
        0.000000000000000
       -0.000109482553443
       -0.001682199670983
       -0.013127965353818
       -0.058374560465149
       -0.086782649684750
       -0.046506829863227
       -0.014868933856735
       -0.003292650383417
        0.000000000000000
        0.000079689015307
        0.000007715047501
       -0.004463511745891
       -0.033885183987347
       -0.092832967117283
       -0.062904986938357
       -0.018482062950826
       -0.003784795388794
       -0.000513765784008
        0.000000000000000
        0.001438640465457
        0.004537321252871
        0.005666495035692
       -0.010090830398994
       -0.023240948886398
       -0.009065498208011
       -0.002199213055527
       -0.000349514307328
        0.000000000000000
        0.001107636378967
        0.003961911301120
        0.007657229261180
        0.006141316902030
       -0.000776865293777
       -0.001557107550260
       -0.000612880372957
        0.000000000000000
        0.000000000000000
        0.000000000000000
        0.001334489762211
        0.002617636340074
        0.002641143975759
        0.001113250871217
        0.000105075611023
       -0.000046798833604
        0.000000000000000
        0.000000000000000
        0.000000000000000
        0.000000000000000
        0.000000000000000
        0.000494955096837
        0.000312866051307
        0.000000000000000
        0.000000000000000
        0.000000000000000
        0.000000000000000
        0.000000000000000
        0.000000000000000
        0.000000000000000
        0.000000000000000
        0.000000000000000
        0.000000000000000
        0.000000000000000
        0.000000000000000
        0.000000000000000
        0.000000000000000
       -0.001239733425565
       -0.002841371008459
       -0.003421654067454
       -0.002135961281309
        0.000000000000000
        0.000000000000000
        0.000000000000000
        0.000000000000000
       -0.000935990415736
       -0.004235754575268
       -0.010345453247392
       -0.012976712845831
       -0.008391161224649
       -0.003038323361752
        0.000000000000000
        0.000000000000000
        0.000000000000000
       -0.001508237678589
       -0.007554497122707
       -0.022415912698682
       -0.030699661170785
       -0.019092754001112
       -0.007182455274510
       -0.001626468440494
        0.000000000000000
        0.000000000000000
       -0.000953144241554
       -0.005531980198707
       -0.019464571358477
       -0.034996018694654
       -0.024569204376417
       -0.009143310750607
       -0.002218485351396
        0.000000000000000
        0.000000000000000
       -0.000081237813735
       -0.001214273462097
       -0.005851524030016
       -0.013351628183562
       -0.012826110493350
       -0.005598903273578
       -0.001497784996439
        0.000000000000000
        0.000000000000000
        0.000000000000000
        0.000371464958993
       -0.000015986744056
       -0.001717779993512
       -0.002819814147976
       -0.001678181465565
       -0.000509604228579
        0.000000000000000
        0.000000000000000
        0.000000000000000
        0.000000000000000
        0.000421897576363
        0.000239907999160
       -0.000171554336341
       -0.000207705543122
        0.000000000000000
        0.000000000000000
        0.000000000000000
        0.000000000000000
        0.000000000000000
        0.000000000000000
        0.000000000000000
        0.000000000000000
        0.000000000000000
        0.000000000000000
        0.000000000000000
        0.000000000000000
        0.000000000000000
        0.000000000000000
        0.000000000000000
        0.000000000000000
        0.000000000000000
        0.000000000000000
        0.000000000000000
        0.000000000000000
        0.000000000000000
        0.000000000000000
        0.000000000000000
       -0.000890935672528
       -0.001011490806454
        0.000000000000000
        0.000000000000000
        0.000000000000000
        0.000000000000000
        0.000000000000000
        0.000000000000000
       -0.001275223489065
       -0.002925410807498
       -0.003534510094284
       -0.002214672001217
        0.000000000000000
        0.000000000000000
        0.000000000000000
        0.000000000000000
       -0.000556465764351
       -0.002315052117858
       -0.005400589059518
       -0.006993729405344
       -0.004896657688569
       -0.001936618594877
        0.000000000000000
        0.000000000000000
        0.000000000000000
       -0.000469475405957
       -0.002041385147683
       -0.005266840309879
       -0.007643293400826
       -0.005931286974772
       -0.002661627000497
       -0.000690532016810
        0.000000000000000
        0.000000000000000
        0.000000000000000
       -0.000842805688656
       -0.002503343621233
       -0.004206638484402
       -0.003712084439866
       -0.001826460728492
       -0.000531745079301
        0.000000000000000
        0.000000000000000
        0.000000000000000
        0.000000000000000
       -0.000566861034679
       -0.001172464002220
       -0.001218394482066
       -0.000647921069647
        0.000000000000000
        0.000000000000000
        0.000000000000000
        0.000000000000000
        0.000000000000000
        0.000000000000000
       -0.000151027457157
       -0.000198771267386
        0.000000000000000
        0.000000000000000
        0.000000000000000
        0.000000000000000
        0.000000000000000
        0.000000000000000
        0.000000000000000
        0.000000000000000
        0.000000000000000
        0.000000000000000
        0.000000000000000
        0.000000000000000
        0.000000000000000
        0.000000000000000
        0.000000000000000
        0.000000000000000
        0.000000000000000
        0.000000000000000
        0.000000000000000
        0.000000000000000
        0.000000000000000
        0.000000000000000
        0.000000000000000
        0.000000000000000
        0.000000000000000
        0.000000000000000
        0.000000000000000
        0.000000000000000
        0.000000000000000
        0.000000000000000
        0.000000000000000
        0.000000000000000
        0.000000000000000
        0.000000000000000
        0.000000000000000
        0.000000000000000
        0.000000000000000
        0.000000000000000
        0.000000000000000
        0.000000000000000
        0.000000000000000
        0.000000000000000
       -0.000854003268388
       -0.001034548896197
        0.000000000000000
        0.000000000000000
        0.000000000000000
        0.000000000000000
        0.000000000000000
        0.000000000000000
        0.000000000000000
       -0.000867337774699
       -0.001317256772189
       -0.000899747139328
        0.000000000000000
        0.000000000000000
        0.000000000000000
        0.000000000000000
        0.000000000000000
        0.000000000000000
        0.000000000000000
       -0.000732877875986
       -0.000653198515162
        0.000000000000000
        0.000000000000000
        0.000000000000000
        0.000000000000000
        0.000000000000000
        0.000000000000000
        0.000000000000000
        0.000000000000000
        0.000000000000000
        0.000000000000000
        0.000000000000000
        0.000000000000000
        0.000000000000000
        0.000000000000000
        0.000000000000000
        0.000000000000000
        0.000000000000000
        0.000000000000000
        0.000000000000000
        0.000000000000000
        0.000000000000000
        0.000000000000000
        0.000000000000000
        0.000000000000000
        0.000000000000000
        0.000000000000000
        0.000000000000000
        0.000000000000000
        0.000000000000000
        0.000000000000000
END_DATAGRID_3D
END_BLOCK_DATAGRID_3D
