ATOMS
         C    7.558905    7.558905    7.558905
         H    8.755769    8.755769    8.755769
         H    6.362040    6.362040    8.755769
         H    8.755769    6.362040    6.362040
         H    6.362040    8.755769    6.362040
BEGIN_BLOCK_DATAGRID_3D
units: coords = b, function = 1/hbar/H*b^-2
BEGIN_DATAGRID_3D_function
      9      9      9
0.0 0.0 0.0
   15.117809    0.000000    0.000000
    0.000000   15.117809    0.000000
    0.000000    0.000000   15.117809
        0.000000000000000
        0.000000000000000
        0.000000000000000
        0.000000000000000
        0.000000000000000
        0.000000000000000
        0.000000000000000
        0.000000000000000
        0.000000000000000
        0.000000000000000
        0.000000000000000
        0.000000000000000
        0.000000000000000
        0.000000000000000
        0.000000000000000
        0.000000000000000
        0.000000000000000
        0.000000000000000
        0.000000000000000
        0.000000000000000
        0.000000000000000
        0.000000000000000
        0.000000000000000
        0.000000000000000
        0.000000000000000
        0.000000000000000
        0.000000000000000
        0.000000000000000
        0.000000000000000
        0.000000000000000
        0.000000000000000
       -0.000000000109677
        0.000000000006875
        0.000000000000000
        0.000000000000000
        0.000000000000000
        0.000000000000000
        0.000000000000000
        0.000000000000000
        0.000000000006581
       -0.000000000325572
        0.000000000006875
        0.000000000000000
        0.000000000000000
        0.000000000000000
        0.000000000000000
        0.000000000000000
        0.000000000000000
        0.000000000006581
       -0.000000000110239
        0.000000000000000
        0.000000000000000
        0.000000000000000
        0.000000000000000
        0.000000000000000
        0.000000000000000
        0.000000000000000
        0.000000000000000
        0.000000000000000
        0.000000000000000
        0.000000000000000
        0.000000000000000
        0.000000000000000
        0.000000000000000
        0.000000000000000
        0.000000000000000
        0.000000000000000
        0.000000000000000
        0.000000000000000
        0.000000000000000
        0.000000000000000
        0.000000000000000
        0.000000000000000
        0.000000000000000
        0.000000000000000
        0.000000000000000
        0.000000000000000
        0.000000000000000
        0.000000000000000
        0.000000000000000
        0.000000000000000
        0.000000000000000
        0.000000000000000
        0.000000000000000
        0.000000000000000
        0.000000000000000
        0.000000000000000
        0.000000000000000
        0.000000000000000
        0.000000000000000
        0.000000000000000
        0.000000000000000
        0.000000000000000
        0.000000000000000
       -0.000000000202816
        0.000000000188794
        0.000000000000000
        0.000000000000000
        0.000000000000000
        0.000000000000000
        0.000000000000000
        0.000000000000000
       -0.000000000374505
       -0.000000000235622
        0.000000000184996
        0.000000000210138
        0.000000000000000
        0.000000000000000
        0.000000000000000
        0.000000000000000
       -0.000000000238047
       -0.000000000536948
        0.000000000255267
       -0.000000000278958
        0.000000000310336
       -0.000000000000282
        0.000000000000000
        0.000000000000000
        0.000000000000135
       -0.000000000403669
        0.000000000220269
       -0.000000000198014
        0.000000000231013
       -0.000000000399716
       -0.000000000000282
        0.000000000000000
        0.000000000000000
        0.000000000000135
        0.000000000308772
       -0.000000000290039
        0.000000000242437
       -0.000000000535573
       -0.000000000236246
        0.000000000000000
        0.000000000000000
        0.000000000000000
        0.000000000000000
        0.000000000209858
        0.000000000185272
       -0.000000000241206
       -0.000000000371730
        0.000000000000000
        0.000000000000000
        0.000000000000000
        0.000000000000000
        0.000000000000000
        0.000000000000000
        0.000000000187188
       -0.000000000205530
        0.000000000000000
        0.000000000000000
        0.000000000000000
        0.000000000000000
        0.000000000000000
        0.000000000000000
        0.000000000000000
        0.000000000000000
        0.000000000000000
        0.000000000000000
        0.000000000000000
        0.000000000000000
        0.000000000000000
        0.000000000000000
        0.000000000000000
        0.000000000000000
        0.000000000000000
        0.000000000000000
        0.000000000000000
        0.000000000000000
        0.000000000000000
        0.000000000000000
        0.000000000000000
        0.000000000000000
        0.000000000000000
       -0.000000000536997
        0.000000000065887
       -0.000000000068417
        0.000000000352277
        0.000000000000000
        0.000000000000000
        0.000000000000000
        0.000000000000000
       -0.000000000719249
        0.000000000119742
        0.000000001352781
       -0.000000002063415
       -0.000000000499481
        0.000000000105641
        0.000000000000000
        0.000000000000000
       -0.000000000098525
       -0.000000000400674
        0.000000005199077
       -0.000000003129247
       -0.000000009592243
       -0.000000001326328
        0.000000000097674
        0.000000000000000
        0.000000000000000
       -0.000000000215803
        0.000000001481346
       -0.000000003517790
       -0.000000009245199
       -0.000000003569349
        0.000000001510543
       -0.000000000213661
        0.000000000000000
        0.000000000000000
        0.000000000094920
       -0.000000001351303
       -0.000000009630352
       -0.000000003178341
        0.000000005202163
       -0.000000000389701
       -0.000000000097622
        0.000000000000000
        0.000000000000000
        0.000000000104361
       -0.000000000492746
       -0.000000002133370
        0.000000001345657
        0.000000000127656
       -0.000000000709997
        0.000000000000000
        0.000000000000000
        0.000000000000000
        0.000000000000000
        0.000000000350036
       -0.000000000069033
        0.000000000060750
       -0.000000000534553
        0.000000000000000
        0.000000000000000
        0.000000000000000
        0.000000000000000
        0.000000000000000
        0.000000000000000
        0.000000000000000
        0.000000000000000
        0.000000000000000
        0.000000000000000
        0.000000000000000
        0.000000000000000
        0.000000000000000
        0.000000000000000
        0.000000000000000
        0.000000000000000
       -0.000000000276800
        0.000000000188877
        0.000000000000000
        0.000000000000000
        0.000000000000000
        0.000000000000000
        0.000000000000000
       -0.000000000332996
       -0.000000001067554
       -0.000000002773304
        0.000000001664298
        0.000000001394375
       -0.000000000094553
        0.000000000000000
        0.000000000000000
        0.000000000064874
       -0.000000001706330
        0.000000024802956
        0.000000045174776
       -0.000000032174012
       -0.000000027374525
        0.000000001712065
        0.000000000000000
        0.000000000000000
       -0.000000001689284
        0.000000022231337
        0.000000077981696
       -0.000000127518214
       -0.000000245379571
       -0.000000016770206
        0.000000001202899
        0.000000000006223
        0.000000000005960
       -0.000000003183312
        0.000000045600322
       -0.000000131129525
       -0.000000315467511
       -0.000000133017847
        0.000000045735048
       -0.000000003181439
        0.000000000006223
        0.000000000005960
        0.000000001184985
       -0.000000016819431
       -0.000000243603014
       -0.000000126279617
        0.000000078365707
        0.000000022289276
       -0.000000001696085
        0.000000000000000
        0.000000000000000
        0.000000001704510
       -0.000000027360483
       -0.000000032693246
        0.000000045307364
        0.000000024880640
       -0.000000001706846
        0.000000000066555
        0.000000000000000
        0.000000000000000
       -0.000000000096214
        0.000000001391495
        0.000000001661418
       -0.000000002786813
       -0.000000001071394
       -0.000000000330675
        0.000000000000000
        0.000000000000000
        0.000000000000000
        0.000000000000000
        0.000000000000000
        0.000000000190852
       -0.000000000274934
        0.000000000000000
        0.000000000000000
        0.000000000000000
        0.000000000000000
        0.000000000000000
        0.000000000000000
        0.000000000000000
       -0.000000000127282
       -0.000000000002357
        0.000000000125450
        0.000000000000000
        0.000000000000000
        0.000000000000000
        0.000000000000000
        0.000000000048788
       -0.000000000531546
       -0.000000005236560
        0.000000000027132
        0.000000005254809
        0.000000000537142
       -0.000000000045858
        0.000000000000000
        0.000000000000000
       -0.000000000808538
        0.000000011116349
        0.000000106408303
       -0.000000000648707
       -0.000000106709346
       -0.000000011137894
        0.000000000818742
        0.000000000000000
        0.000000000003711
       -0.000000004974305
        0.000000090385452
        0.000000394925516
       -0.000000000903227
       -0.000000397489784
       -0.000000090617859
        0.000000005012506
       -0.000000000002991
        0.000000000000000
        0.000000000000000
       -0.000000000000000
        0.000000000000000
        0.000000000000000
       -0.000000000000000
        0.000000000000000
        0.000000000000000
        0.000000000000000
       -0.000000000003711
        0.000000004974305
       -0.000000090385452
       -0.000000394925516
        0.000000000903227
        0.000000397489784
        0.000000090617859
       -0.000000005012506
        0.000000000002991
        0.000000000000000
        0.000000000808538
       -0.000000011116349
       -0.000000106408303
        0.000000000648707
        0.000000106709346
        0.000000011137894
       -0.000000000818742
        0.000000000000000
        0.000000000000000
       -0.000000000048788
        0.000000000531546
        0.000000005236560
       -0.000000000027132
       -0.000000005254809
       -0.000000000537142
        0.000000000045858
        0.000000000000000
        0.000000000000000
        0.000000000000000
        0.000000000000000
        0.000000000127282
        0.000000000002357
       -0.000000000125450
        0.000000000000000
        0.000000000000000
        0.000000000000000
        0.000000000000000
        0.000000000000000
        0.000000000000000
       -0.000000000190852
        0.000000000274934
        0.000000000000000
        0.000000000000000
        0.000000000000000
        0.000000000000000
        0.000000000000000
        0.000000000096214
       -0.000000001391495
       -0.000000001661418
        0.000000002786813
        0.000000001071394
        0.000000000330675
        0.000000000000000
        0.000000000000000
        0.000000000000000
       -0.000000001704510
        0.000000027360483
        0.000000032693246
       -0.000000045307364
       -0.000000024880640
        0.000000001706846
       -0.000000000066555
        0.000000000000000
       -0.000000000005960
       -0.000000001184985
        0.000000016819431
        0.000000243603014
        0.000000126279617
       -0.000000078365707
       -0.000000022289276
        0.000000001696085
        0.000000000000000
       -0.000000000005960
        0.000000003183312
       -0.000000045600322
        0.000000131129525
        0.000000315467511
        0.000000133017847
       -0.000000045735048
        0.000000003181439
       -0.000000000006223
        0.000000000000000
        0.000000001689284
       -0.000000022231337
       -0.000000077981696
        0.000000127518214
        0.000000245379571
        0.000000016770206
       -0.000000001202899
       -0.000000000006223
        0.000000000000000
       -0.000000000064874
        0.000000001706330
       -0.000000024802956
       -0.000000045174776
        0.000000032174012
        0.000000027374525
       -0.000000001712065
        0.000000000000000
        0.000000000000000
        0.000000000000000
        0.000000000332996
        0.000000001067554
        0.000000002773305
       -0.000000001664298
       -0.000000001394375
        0.000000000094553
        0.000000000000000
        0.000000000000000
        0.000000000000000
        0.000000000000000
        0.000000000000000
        0.000000000276800
       -0.000000000188877
        0.000000000000000
        0.000000000000000
        0.000000000000000
        0.000000000000000
        0.000000000000000
        0.000000000000000
        0.000000000000000
        0.000000000000000
        0.000000000000000
        0.000000000000000
        0.000000000000000
        0.000000000000000
        0.000000000000000
        0.000000000000000
       -0.000000000350036
        0.000000000069033
       -0.000000000060750
        0.000000000534553
        0.000000000000000
        0.000000000000000
        0.000000000000000
        0.000000000000000
       -0.000000000104361
        0.000000000492746
        0.000000002133370
       -0.000000001345657
       -0.000000000127656
        0.000000000709997
        0.000000000000000
        0.000000000000000
        0.000000000000000
       -0.000000000094920
        0.000000001351303
        0.000000009630352
        0.000000003178341
       -0.000000005202163
        0.000000000389701
        0.000000000097622
        0.000000000000000
        0.000000000000000
        0.000000000215803
       -0.000000001481346
        0.000000003517790
        0.000000009245199
        0.000000003569349
       -0.000000001510543
        0.000000000213661
        0.000000000000000
        0.000000000000000
        0.000000000098525
        0.000000000400674
       -0.000000005199077
        0.000000003129247
        0.000000009592243
        0.000000001326328
       -0.000000000097674
        0.000000000000000
        0.000000000000000
        0.000000000000000
        0.000000000719249
       -0.000000000119742
       -0.000000001352781
        0.000000002063415
        0.000000000499481
       -0.000000000105641
        0.000000000000000
        0.000000000000000
        0.000000000000000
        0.000000000000000
        0.000000000536997
       -0.000000000065887
        0.000000000068417
       -0.000000000352277
        0.000000000000000
        0.000000000000000
        0.000000000000000
        0.000000000000000
        0.000000000000000
        0.000000000000000
        0.000000000000000
        0.000000000000000
        0.000000000000000
        0.000000000000000
        0.000000000000000
        0.000000000000000
        0.000000000000000
        0.000000000000000
        0.000000000000000
        0.000000000000000
        0.000000000000000
        0.000000000000000
        0.000000000000000
        0.000000000000000
        0.000000000000000
        0.000000000000000
        0.000000000000000
       -0.000000000187188
        0.000000000205530
        0.000000000000000
        0.000000000000000
        0.000000000000000
        0.000000000000000
        0.000000000000000
        0.000000000000000
       -0.000000000209858
       -0.000000000185272
        0.000000000241206
        0.000000000371730
        0.000000000000000
        0.000000000000000
        0.000000000000000
        0.000000000000000
       -0.000000000000135
       -0.000000000308772
        0.000000000290039
       -0.000000000242437
        0.000000000535573
        0.000000000236246
        0.000000000000000
        0.000000000000000
        0.000000000000000
       -0.000000000000135
        0.000000000403669
       -0.000000000220269
        0.000000000198014
       -0.000000000231013
        0.000000000399716
        0.000000000000282
        0.000000000000000
        0.000000000000000
        0.000000000000000
        0.000000000238047
        0.000000000536948
       -0.000000000255267
        0.000000000278958
       -0.000000000310336
        0.000000000000282
        0.000000000000000
        0.000000000000000
        0.000000000000000
        0.000000000000000
        0.000000000374505
        0.000000000235622
       -0.000000000184996
       -0.000000000210138
        0.000000000000000
        0.000000000000000
        0.000000000000000
        0.000000000000000
        0.000000000000000
        0.000000000000000
        0.000000000202816
       -0.000000000188794
        0.000000000000000
        0.000000000000000
        0.000000000000000
        0.000000000000000
        0.000000000000000
        0.000000000000000
        0.000000000000000
        0.000000000000000
        0.000000000000000
        0.000000000000000
        0.000000000000000
        0.000000000000000
        0.000000000000000
        0.000000000000000
        0.000000000000000
        0.000000000000000
        0.000000000000000
        0.000000000000000
        0.000000000000000
        0.000000000000000
        0.000000000000000
        0.000000000000000
        0.000000000000000
        0.000000000000000
        0.000000000000000
        0.000000000000000
        0.000000000000000
        0.000000000000000
        0.000000000000000
        0.000000000000000
        0.000000000000000
        0.000000000000000
        0.000000000000000
        0.000000000000000
        0.000000000000000
        0.000000000000000
        0.000000000000000
        0.000000000000000
        0.000000000000000
        0.000000000000000
        0.000000000000000
        0.000000000000000
       -0.000000000006581
        0.000000000110239
        0.000000000000000
        0.000000000000000
        0.000000000000000
        0.000000000000000
        0.000000000000000
        0.000000000000000
        0.000000000000000
       -0.000000000006581
        0.000000000325572
       -0.000000000006875
        0.000000000000000
        0.000000000000000
        0.000000000000000
        0.000000000000000
        0.000000000000000
        0.000000000000000
        0.000000000000000
        0.000000000109677
       -0.000000000006875
        0.000000000000000
        0.000000000000000
        0.000000000000000
        0.000000000000000
        0.000000000000000
        0.000000000000000
        0.000000000000000
        0.000000000000000
        0.000000000000000
        0.000000000000000
        0.000000000000000
        0.000000000000000
        0.000000000000000
        0.000000000000000
        0.000000000000000
        0.000000000000000
        0.000000000000000
        0.000000000000000
        0.000000000000000
        0.000000000000000
        0.000000000000000
        0.000000000000000
        0.000000000000000
        0.000000000000000
        0.000000000000000
        0.000000000000000
        0.000000000000000
        0.000000000000000
        0.000000000000000
        0.000000000000000
END_DATAGRID_3D
END_BLOCK_DATAGRID_3D
