ATOMS
         C    7.558905    7.558905    7.558905
         H    8.755769    8.755769    8.755769
         H    6.362040    6.362040    8.755769
         H    8.755769    6.362040    6.362040
         H    6.362040    8.755769    6.362040
BEGIN_BLOCK_DATAGRID_3D
units: coords = b, function = sqrt(b^-3)
BEGIN_DATAGRID_3D_function
      9      9      9
0.0 0.0 0.0
   15.117809    0.000000    0.000000
    0.000000   15.117809    0.000000
    0.000000    0.000000   15.117809
        0.000000000000000
        0.000000000000000
        0.000000000000000
        0.000000000000000
        0.000000000000000
        0.000000000000000
        0.000000000000000
        0.000000000000000
        0.000000000000000
        0.000000000000000
        0.000000000000000
        0.000000000000000
        0.000000000000000
        0.000000000000000
        0.000000000000000
        0.000000000000000
        0.000000000000000
        0.000000000000000
        0.000000000000000
        0.000000000000000
        0.000000000000000
        0.000000000000000
        0.000000000000000
        0.000000000000000
        0.000000000000000
        0.000000000000000
        0.000000000000000
        0.000000000000000
        0.000000000000000
        0.000000000000000
        0.000000000000000
        0.000742954576047
        0.000517672592047
        0.000000000000000
        0.000000000000000
        0.000000000000000
        0.000000000000000
        0.000000000000000
        0.000000000000000
        0.001187686426649
        0.001486257846280
        0.000806404983237
        0.000000000000000
        0.000000000000000
        0.000000000000000
        0.000000000000000
        0.000000000000000
        0.000000000000000
        0.001182778784527
        0.001251056219313
        0.000000000000000
        0.000000000000000
        0.000000000000000
        0.000000000000000
        0.000000000000000
        0.000000000000000
        0.000000000000000
        0.000000000000000
        0.000000000000000
        0.000000000000000
        0.000000000000000
        0.000000000000000
        0.000000000000000
        0.000000000000000
        0.000000000000000
        0.000000000000000
        0.000000000000000
        0.000000000000000
        0.000000000000000
        0.000000000000000
        0.000000000000000
        0.000000000000000
        0.000000000000000
        0.000000000000000
        0.000000000000000
        0.000000000000000
        0.000000000000000
        0.000000000000000
        0.000000000000000
        0.000000000000000
        0.000000000000000
        0.000000000000000
        0.000000000000000
        0.000000000000000
        0.000000000000000
        0.000000000000000
        0.000000000000000
        0.000000000000000
        0.000000000000000
        0.000000000000000
        0.000000000000000
        0.000000000000000
        0.000000000000000
        0.000000000000000
        0.000023333962721
       -0.000043086350855
        0.000000000000000
        0.000000000000000
        0.000000000000000
        0.000000000000000
        0.000000000000000
        0.000000000000000
        0.000851093729465
        0.000928575071536
        0.000401837186370
        0.000045146435924
        0.000000000000000
        0.000000000000000
        0.000000000000000
        0.000000000000000
        0.001769771709004
        0.003723205569711
        0.004231289752504
        0.002341414145946
        0.000634181881883
        0.000084313200081
        0.000000000000000
        0.000000000000000
        0.001082667423228
        0.003816472120339
        0.007751599737502
        0.008624635301265
        0.004888021561426
        0.001496513907320
        0.000229372576228
        0.000000000000000
        0.000000000000000
        0.001145123810649
        0.004040269826972
        0.007939716929806
        0.008407063593183
        0.004632975594309
        0.001372493331013
        0.000000000000000
        0.000000000000000
        0.000000000000000
        0.000000000000000
        0.002123741222242
        0.004271339937380
        0.004382388721863
        0.002290313615347
        0.000000000000000
        0.000000000000000
        0.000000000000000
        0.000000000000000
        0.000000000000000
        0.000000000000000
        0.001271609222777
        0.001287744597054
        0.000000000000000
        0.000000000000000
        0.000000000000000
        0.000000000000000
        0.000000000000000
        0.000000000000000
        0.000000000000000
        0.000000000000000
        0.000000000000000
        0.000000000000000
        0.000000000000000
        0.000000000000000
        0.000000000000000
        0.000000000000000
        0.000000000000000
        0.000000000000000
        0.000000000000000
        0.000000000000000
        0.000000000000000
        0.000000000000000
        0.000000000000000
        0.000000000000000
        0.000000000000000
        0.000000000000000
        0.000000000000000
       -0.000262845937398
       -0.000664981010779
       -0.000781512997851
       -0.000453342624798
        0.000000000000000
        0.000000000000000
        0.000000000000000
        0.000000000000000
        0.000865393416840
        0.001387664850424
        0.000512422382848
       -0.000995340848610
       -0.000916419753416
       -0.000337816193210
        0.000000000000000
        0.000000000000000
        0.001423477556425
        0.005396120598860
        0.011575995831962
        0.012517854355292
        0.003905176782993
        0.000064020290820
       -0.000274801849057
        0.000000000000000
        0.000000000000000
        0.003321350038305
        0.013249924906180
        0.032933380354991
        0.039493760698256
        0.016780327001973
        0.003339095487216
        0.000272686799968
        0.000000000000000
        0.000000000000000
        0.003672941409289
        0.014785538289537
        0.035857344803644
        0.037189718118667
        0.016601368978932
        0.004112402692886
        0.000517135401449
        0.000000000000000
        0.000000000000000
        0.001969184489587
        0.007585590271023
        0.015840591353304
        0.016068835802090
        0.008117104372462
        0.002159849883270
        0.000000000000000
        0.000000000000000
        0.000000000000000
        0.000000000000000
        0.002083840474295
        0.004176699906331
        0.004255063515577
        0.002201376679134
        0.000000000000000
        0.000000000000000
        0.000000000000000
        0.000000000000000
        0.000000000000000
        0.000000000000000
        0.000000000000000
        0.000000000000000
        0.000000000000000
        0.000000000000000
        0.000000000000000
        0.000000000000000
        0.000000000000000
        0.000000000000000
        0.000000000000000
        0.000000000000000
       -0.000643276257536
       -0.000573871172946
        0.000000000000000
        0.000000000000000
        0.000000000000000
        0.000000000000000
        0.000000000000000
       -0.000678074152177
       -0.002043741311026
       -0.003494634563879
       -0.003112679882793
       -0.001553392563677
       -0.000466024989680
        0.000000000000000
        0.000000000000000
        0.000089492612569
       -0.000423472181483
       -0.003641325460879
       -0.009473920151081
       -0.009708982767449
       -0.004512146185505
       -0.001279079874770
        0.000000000000000
        0.000000000000000
        0.001929545242297
        0.006841231312047
        0.013203313112019
        0.004760006996489
       -0.012668155537282
       -0.006556425399915
       -0.001848679606428
       -0.000320765528114
        0.000756949572944
        0.005350309412113
        0.026092263894227
        0.084538683606680
        0.104771821495137
        0.024809175761132
       -0.000116561015005
       -0.001046380039860
       -0.000258338902229
        0.000843855336244
        0.006246169652062
        0.031622989175329
        0.104774378119639
        0.104567268724194
        0.032985496006266
        0.004912118555930
        0.000204327230529
        0.000000000000000
        0.000000000000000
        0.003592472414347
        0.014419252920676
        0.034768686815455
        0.035432598295122
        0.015386548351089
        0.003648260744727
        0.000410844680069
        0.000000000000000
        0.000000000000000
        0.001101027074594
        0.003865155904714
        0.007503535807493
        0.007789762395106
        0.004172626807838
        0.001177258021883
        0.000000000000000
        0.000000000000000
        0.000000000000000
        0.000000000000000
        0.000000000000000
        0.001095499803098
        0.001140262613409
        0.000000000000000
        0.000000000000000
        0.000000000000000
        0.000000000000000
        0.000000000000000
        0.000000000000000
        0.000000000000000
       -0.000844476323436
       -0.001266261568178
       -0.000854345487349
        0.000000000000000
        0.000000000000000
        0.000000000000000
        0.000000000000000
       -0.000455490937884
       -0.001970694560451
       -0.005086749869678
       -0.007347915698194
       -0.005680313911736
       -0.002553355864049
       -0.000661048904200
        0.000000000000000
        0.000000000000000
       -0.000872638265250
       -0.005245001558269
       -0.018704136650984
       -0.033646435694230
       -0.023640414948427
       -0.008877308125335
       -0.002183878207934
        0.000000000000000
        0.000110902493856
        0.000236562153483
       -0.003554134886590
       -0.031298942002605
       -0.089254862035243
       -0.061816037955797
       -0.018546115306842
       -0.003889254077402
       -0.000532837012382
        0.000630514483561
        0.003657241243370
        0.016734200944755
        0.044386442760785
        0.000010215746279
       -0.044332191811309
       -0.016708915061188
       -0.003646080075476
       -0.000628026219184
        0.000734955499405
        0.005122493413135
        0.024617448078680
        0.077613568824818
        0.089269774917460
        0.015560294586090
       -0.002481706557105
       -0.001453757358953
       -0.000309779326629
        0.000000000000000
        0.003124517773374
        0.012272140162499
        0.029701384364059
        0.033650103683392
        0.012657982079400
        0.001863952170882
       -0.000061468516508
        0.000000000000000
        0.000000000000000
        0.001011327627717
        0.003492292160250
        0.006906439343004
        0.007348474594143
        0.003863223741843
        0.001034997273051
        0.000106818110319
        0.000000000000000
        0.000000000000000
        0.000000000000000
        0.000000000000000
        0.001054899395117
        0.001266341289354
        0.000644158419431
        0.000000000000000
        0.000000000000000
        0.000000000000000
        0.000000000000000
        0.000000000000000
        0.000000000000000
       -0.000874794758250
       -0.001055613049867
        0.000000000000000
        0.000000000000000
        0.000000000000000
        0.000000000000000
        0.000000000000000
       -0.000580329580599
       -0.002427145241791
       -0.005645404527138
       -0.007272822031459
       -0.005074355520586
       -0.001997592800109
        0.000000000000000
        0.000000000000000
        0.000000000000000
       -0.001611773560326
       -0.008131118885621
       -0.024160346693872
       -0.032873943920018
       -0.020358411592172
       -0.007669563867379
       -0.001739245626619
        0.000000000000000
       -0.000122607654805
       -0.001887704076351
       -0.014779776422398
       -0.065774536401105
       -0.097893277149478
       -0.052528765756949
       -0.016831655081387
       -0.003737356242714
        0.000000000000000
        0.000088908420316
        0.000008746154505
       -0.005028950702136
       -0.038224056784466
       -0.104756908612919
       -0.071064919130838
       -0.020911260848943
       -0.004296631396494
       -0.000584277436782
        0.000000000000000
        0.001613731359312
        0.005100900023910
        0.006366844787261
       -0.011414252837215
       -0.026283013022337
       -0.010258660974716
       -0.002496614987142
       -0.000397717926952
        0.000000000000000
        0.001242706698087
        0.004453063106360
        0.008620712150343
        0.006920370238155
       -0.000885711458357
       -0.001763823505479
       -0.000695854753507
        0.000000000000000
        0.000000000000000
        0.000000000000000
        0.001500041934699
        0.002946926274142
        0.002978553248896
        0.001257043217675
        0.000118427690416
       -0.000053166762233
        0.000000000000000
        0.000000000000000
        0.000000000000000
        0.000000000000000
        0.000000000000000
        0.000558712063978
        0.000353400826603
        0.000000000000000
        0.000000000000000
        0.000000000000000
        0.000000000000000
        0.000000000000000
        0.000000000000000
        0.000000000000000
        0.000000000000000
        0.000000000000000
        0.000000000000000
        0.000000000000000
        0.000000000000000
        0.000000000000000
        0.000000000000000
       -0.001393758734565
       -0.003199438729645
       -0.003859772315657
       -0.002413219173932
        0.000000000000000
        0.000000000000000
        0.000000000000000
        0.000000000000000
       -0.001050327360903
       -0.004762256593986
       -0.011650155715475
       -0.014638618123793
       -0.009482731296569
       -0.003439940287380
        0.000000000000000
        0.000000000000000
        0.000000000000000
       -0.001692242555268
       -0.008497404254483
       -0.025249004682061
       -0.034631063743563
       -0.021573232220015
       -0.008133705815538
       -0.001845536347999
        0.000000000000000
        0.000000000000000
       -0.001069470530181
       -0.006222786301950
       -0.021936132641915
       -0.039490092709093
       -0.027762759870999
       -0.010352451441669
       -0.002518033524410
        0.000000000000000
        0.000000000000000
       -0.000091278245769
       -0.001366529673983
       -0.006596609142498
       -0.015071404268218
       -0.014499871008798
       -0.006339989981805
       -0.001700132779219
        0.000000000000000
        0.000000000000000
        0.000000000000000
        0.000417222099532
       -0.000019693872157
       -0.001940865594969
       -0.003189669707670
       -0.001901174716439
       -0.000578409858210
        0.000000000000000
        0.000000000000000
        0.000000000000000
        0.000000000000000
        0.000475021761160
        0.000270082209988
       -0.000194470257755
       -0.000235394166989
        0.000000000000000
        0.000000000000000
        0.000000000000000
        0.000000000000000
        0.000000000000000
        0.000000000000000
        0.000000000000000
        0.000000000000000
        0.000000000000000
        0.000000000000000
        0.000000000000000
        0.000000000000000
        0.000000000000000
        0.000000000000000
        0.000000000000000
        0.000000000000000
        0.000000000000000
        0.000000000000000
        0.000000000000000
        0.000000000000000
        0.000000000000000
        0.000000000000000
        0.000000000000000
       -0.001003528145577
       -0.001140369341283
        0.000000000000000
        0.000000000000000
        0.000000000000000
        0.000000000000000
        0.000000000000000
        0.000000000000000
       -0.001433659482512
       -0.003294078760694
       -0.003987097521943
       -0.002502156110145
        0.000000000000000
        0.000000000000000
        0.000000000000000
        0.000000000000000
       -0.000624426316653
       -0.002602259164048
       -0.006081585649451
       -0.007890123229536
       -0.005534704307057
       -0.002192828109239
        0.000000000000000
        0.000000000000000
        0.000000000000000
       -0.000526830733394
       -0.002294874520540
       -0.005931910264176
       -0.008624076405316
       -0.006705111731319
       -0.003014872498318
       -0.000783603370109
        0.000000000000000
        0.000000000000000
        0.000000000000000
       -0.000947803926483
       -0.002820020606595
       -0.004747371067487
       -0.004197050811063
       -0.002069146755144
       -0.000603504951994
        0.000000000000000
        0.000000000000000
        0.000000000000000
        0.000000000000000
       -0.000638917905702
       -0.001323473872326
       -0.001377820441975
       -0.000733883227711
        0.000000000000000
        0.000000000000000
        0.000000000000000
        0.000000000000000
        0.000000000000000
        0.000000000000000
       -0.000170606423419
       -0.000224722758428
        0.000000000000000
        0.000000000000000
        0.000000000000000
        0.000000000000000
        0.000000000000000
        0.000000000000000
        0.000000000000000
        0.000000000000000
        0.000000000000000
        0.000000000000000
        0.000000000000000
        0.000000000000000
        0.000000000000000
        0.000000000000000
        0.000000000000000
        0.000000000000000
        0.000000000000000
        0.000000000000000
        0.000000000000000
        0.000000000000000
        0.000000000000000
        0.000000000000000
        0.000000000000000
        0.000000000000000
        0.000000000000000
        0.000000000000000
        0.000000000000000
        0.000000000000000
        0.000000000000000
        0.000000000000000
        0.000000000000000
        0.000000000000000
        0.000000000000000
        0.000000000000000
        0.000000000000000
        0.000000000000000
        0.000000000000000
        0.000000000000000
        0.000000000000000
        0.000000000000000
        0.000000000000000
        0.000000000000000
       -0.000962073739679
       -0.001166406655771
        0.000000000000000
        0.000000000000000
        0.000000000000000
        0.000000000000000
        0.000000000000000
        0.000000000000000
        0.000000000000000
       -0.000977263354967
       -0.001486178125104
       -0.001016592051155
        0.000000000000000
        0.000000000000000
        0.000000000000000
        0.000000000000000
        0.000000000000000
        0.000000000000000
        0.000000000000000
       -0.000827518769604
       -0.000738142938390
        0.000000000000000
        0.000000000000000
        0.000000000000000
        0.000000000000000
        0.000000000000000
        0.000000000000000
        0.000000000000000
        0.000000000000000
        0.000000000000000
        0.000000000000000
        0.000000000000000
        0.000000000000000
        0.000000000000000
        0.000000000000000
        0.000000000000000
        0.000000000000000
        0.000000000000000
        0.000000000000000
        0.000000000000000
        0.000000000000000
        0.000000000000000
        0.000000000000000
        0.000000000000000
        0.000000000000000
        0.000000000000000
        0.000000000000000
        0.000000000000000
        0.000000000000000
        0.000000000000000
        0.000000000000000
END_DATAGRID_3D
END_BLOCK_DATAGRID_3D
