ATOMS
         C    7.558905    7.558905    7.558905
         H    8.755769    8.755769    8.755769
         H    6.362040    6.362040    8.755769
         H    8.755769    6.362040    6.362040
         H    6.362040    8.755769    6.362040
BEGIN_BLOCK_DATAGRID_3D
units: coords = b, function = sqrt(b^-3)
BEGIN_DATAGRID_3D_function
      9      9      9
0.0 0.0 0.0
   15.117809    0.000000    0.000000
    0.000000   15.117809    0.000000
    0.000000    0.000000   15.117809
        0.000000000000000
        0.000000000000000
        0.000000000000000
        0.000000000000000
        0.000000000000000
        0.000000000000000
        0.000000000000000
        0.000000000000000
        0.000000000000000
        0.000000000000000
        0.000000000000000
        0.000000000000000
        0.000000000000000
        0.000000000000000
        0.000000000000000
        0.000000000000000
        0.000000000000000
        0.000000000000000
        0.000000000000000
        0.000000000000000
        0.000000000000000
        0.000000000000000
        0.000000000000000
        0.000000000000000
        0.000000000000000
        0.000000000000000
        0.000000000000000
        0.000000000000000
        0.000000000000000
        0.000000000000000
        0.000000000000000
       -0.000038756315485
        0.000014759174729
        0.000000000000000
        0.000000000000000
        0.000000000000000
        0.000000000000000
        0.000000000000000
        0.000000000000000
       -0.000085067382856
       -0.000035888139695
        0.000037914423708
        0.000000000000000
        0.000000000000000
        0.000000000000000
        0.000000000000000
        0.000000000000000
        0.000000000000000
       -0.000055243725310
       -0.000009412892026
        0.000000000000000
        0.000000000000000
        0.000000000000000
        0.000000000000000
        0.000000000000000
        0.000000000000000
        0.000000000000000
        0.000000000000000
        0.000000000000000
        0.000000000000000
        0.000000000000000
        0.000000000000000
        0.000000000000000
        0.000000000000000
        0.000000000000000
        0.000000000000000
        0.000000000000000
        0.000000000000000
        0.000000000000000
        0.000000000000000
        0.000000000000000
        0.000000000000000
        0.000000000000000
        0.000000000000000
        0.000000000000000
        0.000000000000000
        0.000000000000000
        0.000000000000000
        0.000000000000000
        0.000000000000000
        0.000000000000000
        0.000000000000000
        0.000000000000000
        0.000000000000000
        0.000000000000000
        0.000000000000000
        0.000000000000000
        0.000000000000000
        0.000000000000000
        0.000000000000000
        0.000000000000000
        0.000000000000000
        0.000000000000000
        0.000000000000000
       -0.000083693265970
       -0.000028800562323
        0.000000000000000
        0.000000000000000
        0.000000000000000
        0.000000000000000
        0.000000000000000
        0.000000000000000
       -0.000300711562515
       -0.000253140618914
       -0.000003765913358
        0.000085124109324
        0.000000000000000
        0.000000000000000
        0.000000000000000
        0.000000000000000
       -0.000393706316072
       -0.000643761896769
       -0.000361946165256
        0.000173325623756
        0.000280198128767
        0.000127618618093
        0.000000000000000
        0.000000000000000
       -0.000190798671466
       -0.000549219675826
       -0.000728132708296
       -0.000208353234090
        0.000432456162175
        0.000437323837364
        0.000168072622442
        0.000000000000000
        0.000000000000000
       -0.000150349731985
       -0.000382027713346
       -0.000416725622754
        0.000056638391132
        0.000450994821053
        0.000329775932687
        0.000000000000000
        0.000000000000000
        0.000000000000000
        0.000000000000000
       -0.000133845065652
       -0.000108206993060
        0.000124864525247
        0.000229162354514
        0.000000000000000
        0.000000000000000
        0.000000000000000
        0.000000000000000
        0.000000000000000
        0.000000000000000
       -0.000001089132044
        0.000052006019928
        0.000000000000000
        0.000000000000000
        0.000000000000000
        0.000000000000000
        0.000000000000000
        0.000000000000000
        0.000000000000000
        0.000000000000000
        0.000000000000000
        0.000000000000000
        0.000000000000000
        0.000000000000000
        0.000000000000000
        0.000000000000000
        0.000000000000000
        0.000000000000000
        0.000000000000000
        0.000000000000000
        0.000000000000000
        0.000000000000000
        0.000000000000000
        0.000000000000000
        0.000000000000000
        0.000000000000000
        0.000000000000000
       -0.000399442962559
       -0.000395605084885
       -0.000110490433706
        0.000039779609122
        0.000000000000000
        0.000000000000000
        0.000000000000000
        0.000000000000000
       -0.000801493945150
       -0.001527967631539
       -0.001224948915009
        0.000019362919493
        0.000375338684818
        0.000182148143363
        0.000000000000000
        0.000000000000000
       -0.000566603948062
       -0.001932035102409
       -0.003335178367785
       -0.002082416787895
        0.001219946968911
        0.001312970291272
        0.000511044619284
        0.000000000000000
        0.000000000000000
       -0.000796791463915
       -0.002529373260868
       -0.004207039159337
       -0.000954469734673
        0.003065962911871
        0.002207490029698
        0.000748535941623
        0.000000000000000
        0.000000000000000
       -0.000566178054919
       -0.001622605498771
       -0.002152628294197
        0.000881117668694
        0.002704263961416
        0.001763682847651
        0.000547449911333
        0.000000000000000
        0.000000000000000
       -0.000211672200203
       -0.000521358758448
       -0.000374661723307
        0.000824229265076
        0.001321887979203
        0.000754077859533
        0.000000000000000
        0.000000000000000
        0.000000000000000
        0.000000000000000
       -0.000077187449890
        0.000027360894251
        0.000308872632970
        0.000358797733857
        0.000000000000000
        0.000000000000000
        0.000000000000000
        0.000000000000000
        0.000000000000000
        0.000000000000000
        0.000000000000000
        0.000000000000000
        0.000000000000000
        0.000000000000000
        0.000000000000000
        0.000000000000000
        0.000000000000000
        0.000000000000000
        0.000000000000000
        0.000000000000000
       -0.000162721561826
       -0.000083665708636
        0.000000000000000
        0.000000000000000
        0.000000000000000
        0.000000000000000
        0.000000000000000
       -0.000608738522374
       -0.001154822321890
       -0.001052663694357
       -0.000318560522751
        0.000081191339643
        0.000077120907946
        0.000000000000000
        0.000000000000000
       -0.000682742163808
       -0.002443213728279
       -0.004683771029401
       -0.004048548285277
       -0.000007828329584
        0.000896679885558
        0.000418895302658
        0.000000000000000
        0.000000000000000
       -0.001545296634903
       -0.005734883200594
       -0.012336659242508
       -0.009136043191153
        0.005142373689411
        0.003838077370164
        0.001229724006265
        0.000227605791203
       -0.000300549523984
       -0.001938470664383
       -0.007682070036593
       -0.017433595120049
       -0.002535136354545
        0.015055430418808
        0.007302400997178
        0.001931318460643
        0.000308615735480
       -0.000225234914327
       -0.001273194872515
       -0.004308562564534
       -0.007267475452879
        0.006490652330326
        0.011414431880910
        0.005639536608783
        0.001571223927778
        0.000000000000000
        0.000000000000000
       -0.000452939948976
       -0.001102523976690
       -0.000593090817923
        0.003420396021221
        0.004475195970621
        0.002446204732882
        0.000705092710262
        0.000000000000000
        0.000000000000000
       -0.000088296400933
       -0.000133392971448
        0.000208097534342
        0.000948727551279
        0.001122103496338
        0.000616845165161
        0.000000000000000
        0.000000000000000
        0.000000000000000
        0.000000000000000
        0.000000000000000
        0.000069805111145
        0.000150657819113
        0.000000000000000
        0.000000000000000
        0.000000000000000
        0.000000000000000
        0.000000000000000
        0.000000000000000
        0.000000000000000
       -0.000265185960223
       -0.000281967834171
       -0.000111836995826
        0.000000000000000
        0.000000000000000
        0.000000000000000
        0.000000000000000
       -0.000324707971697
       -0.001057544187153
       -0.001865851295713
       -0.001636334608342
       -0.000520666578372
        0.000068900397019
        0.000086375641074
        0.000000000000000
        0.000000000000000
       -0.001161907007299
       -0.004153953773053
       -0.008783352466284
       -0.007493379158000
       -0.000579226380223
        0.001096169892789
        0.000523129528803
        0.000000000000000
       -0.000356316469518
       -0.002383569244561
       -0.010286528535225
       -0.027701174337081
       -0.019881666659256
        0.007244883418054
        0.005625982565579
        0.001670430780366
        0.000283238239728
       -0.000466751177485
       -0.002730366319866
       -0.012613865757720
       -0.033748028250332
       -0.000032276439401
        0.034291009711432
        0.013034117792424
        0.002870664876387
        0.000498449966611
       -0.000269843671663
       -0.001617925843943
       -0.005587871694722
       -0.007511040652183
        0.019867481962725
        0.028535875453660
        0.010779847216425
        0.002535655510645
        0.000385529711814
        0.000000000000000
       -0.000519803371391
       -0.001141038795638
        0.000423032558988
        0.007490473747421
        0.009075299905275
        0.004376651824155
        0.001244154581339
        0.000000000000000
        0.000000000000000
       -0.000090401004068
       -0.000088935224448
        0.000482546948089
        0.001635891083327
        0.001926436244796
        0.001115992931303
        0.000349841973521
        0.000000000000000
        0.000000000000000
        0.000000000000000
        0.000000000000000
        0.000105181820628
        0.000281926898853
        0.000274402574748
        0.000000000000000
        0.000000000000000
        0.000000000000000
        0.000000000000000
        0.000000000000000
        0.000000000000000
       -0.000237619494311
       -0.000215583733346
        0.000000000000000
        0.000000000000000
        0.000000000000000
        0.000000000000000
        0.000000000000000
       -0.000300567748746
       -0.000950097128478
       -0.001620621776504
       -0.001345177959753
       -0.000424473603771
        0.000023226234905
        0.000000000000000
        0.000000000000000
        0.000000000000000
       -0.001026236823674
       -0.003635608847900
       -0.007471480402770
       -0.005382667160527
       -0.000628871165377
        0.000691859536626
        0.000340431508227
        0.000000000000000
       -0.000308677437603
       -0.001981038489092
       -0.008385654663502
       -0.022382613445640
       -0.011608840647096
        0.003703594240604
        0.003661411540078
        0.001209581197322
        0.000000000000000
       -0.000325610617197
       -0.002063024424121
       -0.008192330193354
       -0.017778619869214
        0.002520951658014
        0.020725328452906
        0.009103428784825
        0.002274767830369
        0.000360152216062
        0.000000000000000
       -0.001100831093539
       -0.003263959722891
       -0.002541710739904
        0.014239379411777
        0.024988831327773
        0.009280686317710
        0.002191086788313
        0.000342643001163
        0.000000000000000
       -0.000312192484545
       -0.000593039366893
        0.000898406059022
        0.006006866354045
        0.008204038784182
        0.004000740144532
        0.001135565251488
        0.000000000000000
        0.000000000000000
        0.000000000000000
       -0.000010690060724
        0.000468250668144
        0.001448445705754
        0.001754152200871
        0.001038631769053
        0.000331521236332
        0.000000000000000
        0.000000000000000
        0.000000000000000
        0.000000000000000
        0.000000000000000
        0.000227567158289
        0.000254192632273
        0.000000000000000
        0.000000000000000
        0.000000000000000
        0.000000000000000
        0.000000000000000
        0.000000000000000
        0.000000000000000
        0.000000000000000
        0.000000000000000
        0.000000000000000
        0.000000000000000
        0.000000000000000
        0.000000000000000
        0.000000000000000
       -0.000442844308469
       -0.000770246802986
       -0.000612011853609
       -0.000194972887789
        0.000000000000000
        0.000000000000000
        0.000000000000000
        0.000000000000000
       -0.000474555362377
       -0.001605948538679
       -0.002810873957672
       -0.001921076907078
       -0.000265367849810
        0.000244715417990
        0.000000000000000
        0.000000000000000
        0.000000000000000
       -0.000912998717731
       -0.003115527325819
       -0.005911942926496
       -0.002843388808000
        0.001142060843829
        0.001374381421856
        0.000498074307156
        0.000000000000000
        0.000000000000000
       -0.000884918914776
       -0.002765619307823
       -0.004153280747959
        0.000951564324094
        0.005430110613181
        0.003265331687246
        0.001018748168520
        0.000000000000000
        0.000000000000000
       -0.000428330700291
       -0.001104217992764
       -0.000450186602594
        0.004040734856662
        0.006976263485687
        0.003584449738819
        0.001043415934863
        0.000000000000000
        0.000000000000000
        0.000000000000000
       -0.000165083065805
        0.000488071082917
        0.002320430413736
        0.003218297154184
        0.001823442360821
        0.000538978213938
        0.000000000000000
        0.000000000000000
        0.000000000000000
        0.000000000000000
        0.000238084424446
        0.000698468156424
        0.000865562311230
        0.000497619731664
        0.000000000000000
        0.000000000000000
        0.000000000000000
        0.000000000000000
        0.000000000000000
        0.000000000000000
        0.000000000000000
        0.000000000000000
        0.000000000000000
        0.000000000000000
        0.000000000000000
        0.000000000000000
        0.000000000000000
        0.000000000000000
        0.000000000000000
        0.000000000000000
        0.000000000000000
        0.000000000000000
        0.000000000000000
        0.000000000000000
        0.000000000000000
        0.000000000000000
        0.000000000000000
       -0.000202751540950
       -0.000165020448772
        0.000000000000000
        0.000000000000000
        0.000000000000000
        0.000000000000000
        0.000000000000000
        0.000000000000000
       -0.000386186692707
       -0.000634678915675
       -0.000428003745887
       -0.000065337508445
        0.000000000000000
        0.000000000000000
        0.000000000000000
        0.000000000000000
       -0.000238514417694
       -0.000701462386581
       -0.000995798619408
       -0.000453088799606
        0.000246635071514
        0.000310295467379
        0.000000000000000
        0.000000000000000
        0.000000000000000
       -0.000224310304299
       -0.000597259735775
       -0.000655171639328
        0.000207909709075
        0.000973313504249
        0.000747569490958
        0.000268144992153
        0.000000000000000
        0.000000000000000
        0.000000000000000
       -0.000225722267026
       -0.000042809756978
        0.000757728176653
        0.001262266054363
        0.000839624979930
        0.000281023526185
        0.000000000000000
        0.000000000000000
        0.000000000000000
        0.000000000000000
        0.000139353024402
        0.000556003690452
        0.000758837790882
        0.000452275231463
        0.000000000000000
        0.000000000000000
        0.000000000000000
        0.000000000000000
        0.000000000000000
        0.000000000000000
        0.000196646033562
        0.000235938469523
        0.000000000000000
        0.000000000000000
        0.000000000000000
        0.000000000000000
        0.000000000000000
        0.000000000000000
        0.000000000000000
        0.000000000000000
        0.000000000000000
        0.000000000000000
        0.000000000000000
        0.000000000000000
        0.000000000000000
        0.000000000000000
        0.000000000000000
        0.000000000000000
        0.000000000000000
        0.000000000000000
        0.000000000000000
        0.000000000000000
        0.000000000000000
        0.000000000000000
        0.000000000000000
        0.000000000000000
        0.000000000000000
        0.000000000000000
        0.000000000000000
        0.000000000000000
        0.000000000000000
        0.000000000000000
        0.000000000000000
        0.000000000000000
        0.000000000000000
        0.000000000000000
        0.000000000000000
        0.000000000000000
        0.000000000000000
        0.000000000000000
        0.000000000000000
        0.000000000000000
        0.000000000000000
        0.000000000000000
       -0.000112570657855
       -0.000055513022207
        0.000000000000000
        0.000000000000000
        0.000000000000000
        0.000000000000000
        0.000000000000000
        0.000000000000000
        0.000000000000000
       -0.000074936756739
        0.000035847204378
        0.000124651155214
        0.000000000000000
        0.000000000000000
        0.000000000000000
        0.000000000000000
        0.000000000000000
        0.000000000000000
        0.000000000000000
        0.000103601911949
        0.000155767748908
        0.000000000000000
        0.000000000000000
        0.000000000000000
        0.000000000000000
        0.000000000000000
        0.000000000000000
        0.000000000000000
        0.000000000000000
        0.000000000000000
        0.000000000000000
        0.000000000000000
        0.000000000000000
        0.000000000000000
        0.000000000000000
        0.000000000000000
        0.000000000000000
        0.000000000000000
        0.000000000000000
        0.000000000000000
        0.000000000000000
        0.000000000000000
        0.000000000000000
        0.000000000000000
        0.000000000000000
        0.000000000000000
        0.000000000000000
        0.000000000000000
        0.000000000000000
        0.000000000000000
        0.000000000000000
END_DATAGRID_3D
END_BLOCK_DATAGRID_3D
