ATOMS
         C    7.558905    7.558905    7.558905
         H    8.755769    8.755769    8.755769
         H    6.362040    6.362040    8.755769
         H    8.755769    6.362040    6.362040
         H    6.362040    8.755769    6.362040
BEGIN_BLOCK_DATAGRID_3D
units: coords = b, function = sqrt(b^-3)
BEGIN_DATAGRID_3D_function
      9      9      9
0.0 0.0 0.0
   15.117809    0.000000    0.000000
    0.000000   15.117809    0.000000
    0.000000    0.000000   15.117809
        0.000000000000000
        0.000000000000000
        0.000000000000000
        0.000000000000000
        0.000000000000000
        0.000000000000000
        0.000000000000000
        0.000000000000000
        0.000000000000000
        0.000000000000000
        0.000000000000000
        0.000000000000000
        0.000000000000000
        0.000000000000000
        0.000000000000000
        0.000000000000000
        0.000000000000000
        0.000000000000000
        0.000000000000000
        0.000000000000000
        0.000000000000000
        0.000000000000000
        0.000000000000000
        0.000000000000000
        0.000000000000000
        0.000000000000000
        0.000000000000000
        0.000000000000000
        0.000000000000000
        0.000000000000000
        0.000000000000000
        0.000202905660025
        0.000142554390842
        0.000000000000000
        0.000000000000000
        0.000000000000000
        0.000000000000000
        0.000000000000000
        0.000000000000000
        0.000321488158343
        0.000405784474910
        0.000222067184869
        0.000000000000000
        0.000000000000000
        0.000000000000000
        0.000000000000000
        0.000000000000000
        0.000000000000000
        0.000320166015864
        0.000341493825549
        0.000000000000000
        0.000000000000000
        0.000000000000000
        0.000000000000000
        0.000000000000000
        0.000000000000000
        0.000000000000000
        0.000000000000000
        0.000000000000000
        0.000000000000000
        0.000000000000000
        0.000000000000000
        0.000000000000000
        0.000000000000000
        0.000000000000000
        0.000000000000000
        0.000000000000000
        0.000000000000000
        0.000000000000000
        0.000000000000000
        0.000000000000000
        0.000000000000000
        0.000000000000000
        0.000000000000000
        0.000000000000000
        0.000000000000000
        0.000000000000000
        0.000000000000000
        0.000000000000000
        0.000000000000000
        0.000000000000000
        0.000000000000000
        0.000000000000000
        0.000000000000000
        0.000000000000000
        0.000000000000000
        0.000000000000000
        0.000000000000000
        0.000000000000000
        0.000000000000000
        0.000000000000000
        0.000000000000000
        0.000000000000000
        0.000000000000000
        0.000006375630225
       -0.000011863525715
        0.000000000000000
        0.000000000000000
        0.000000000000000
        0.000000000000000
        0.000000000000000
        0.000000000000000
        0.000230378833911
        0.000253519400790
        0.000110677439547
        0.000012545152955
        0.000000000000000
        0.000000000000000
        0.000000000000000
        0.000000000000000
        0.000474789745851
        0.001007630148433
        0.001155266628045
        0.000644880264442
        0.000176185957259
        0.000023628993332
        0.000000000000000
        0.000000000000000
        0.000287850610439
        0.001023754116560
        0.002097858470822
        0.002354771385151
        0.001346277312835
        0.000415761625013
        0.000064269824190
        0.000000000000000
        0.000000000000000
        0.000304459582626
        0.001083776862328
        0.002148768501161
        0.002295365750323
        0.001276023370297
        0.000381272041414
        0.000000000000000
        0.000000000000000
        0.000000000000000
        0.000000000000000
        0.000569751938206
        0.001155956202043
        0.001196527460749
        0.000630723973446
        0.000000000000000
        0.000000000000000
        0.000000000000000
        0.000000000000000
        0.000000000000000
        0.000000000000000
        0.000344216368356
        0.000351509163624
        0.000000000000000
        0.000000000000000
        0.000000000000000
        0.000000000000000
        0.000000000000000
        0.000000000000000
        0.000000000000000
        0.000000000000000
        0.000000000000000
        0.000000000000000
        0.000000000000000
        0.000000000000000
        0.000000000000000
        0.000000000000000
        0.000000000000000
        0.000000000000000
        0.000000000000000
        0.000000000000000
        0.000000000000000
        0.000000000000000
        0.000000000000000
        0.000000000000000
        0.000000000000000
        0.000000000000000
        0.000000000000000
       -0.000071140061763
       -0.000181557266139
       -0.000215251895015
       -0.000125933827588
        0.000000000000000
        0.000000000000000
        0.000000000000000
        0.000000000000000
        0.000232173974327
        0.000375549957497
        0.000139907456367
       -0.000274139145135
       -0.000254602538072
       -0.000094657176454
        0.000000000000000
        0.000000000000000
        0.000378475793544
        0.001447509135102
        0.003132991177939
        0.003417766408207
        0.001075540714074
        0.000017788676225
       -0.000076999605438
        0.000000000000000
        0.000000000000000
        0.000883038307853
        0.003554364834308
        0.008913431433844
        0.010782946884898
        0.004621392378870
        0.000927660713397
        0.000076419018981
        0.000000000000000
        0.000000000000000
        0.000976492772578
        0.003966330542840
        0.009704563765941
        0.010153748804725
        0.004572203274989
        0.001142517268431
        0.000144892149990
        0.000000000000000
        0.000000000000000
        0.000523565996936
        0.002034804203945
        0.004287055896830
        0.004387233186303
        0.002235618317949
        0.000599987947233
        0.000000000000000
        0.000000000000000
        0.000000000000000
        0.000000000000000
        0.000559047767676
        0.001130343726745
        0.001161763305262
        0.000606232310878
        0.000000000000000
        0.000000000000000
        0.000000000000000
        0.000000000000000
        0.000000000000000
        0.000000000000000
        0.000000000000000
        0.000000000000000
        0.000000000000000
        0.000000000000000
        0.000000000000000
        0.000000000000000
        0.000000000000000
        0.000000000000000
        0.000000000000000
        0.000000000000000
       -0.000175675664274
       -0.000158028424004
        0.000000000000000
        0.000000000000000
        0.000000000000000
        0.000000000000000
        0.000000000000000
       -0.000181903801991
       -0.000553113190932
       -0.000954137133107
       -0.000857306148653
       -0.000431567070261
       -0.000130587535459
        0.000000000000000
        0.000000000000000
        0.000023797681599
       -0.000113595181210
       -0.000985517927188
       -0.002586663768766
       -0.002674000485303
       -0.001253533551092
       -0.000358417271686
        0.000000000000000
        0.000000000000000
        0.000513011824727
        0.001835258359757
        0.003573702210059
        0.001299704511573
       -0.003488759299958
       -0.001821086832810
       -0.000518110198751
       -0.000090640736802
        0.000199514906343
        0.001422219226764
        0.007000478793271
        0.022883537819913
        0.028606312494785
        0.006830667053966
       -0.000032006775738
       -0.000293253213842
       -0.000073028412723
        0.000222453335394
        0.001660125120699
        0.008485223062001
        0.028358181906140
        0.028548369500437
        0.009083087754059
        0.001364906481842
        0.000057216655860
        0.000000000000000
        0.000000000000000
        0.000955099002647
        0.003868072943632
        0.009409924556917
        0.009674009794499
        0.004237625867030
        0.001013570249546
        0.000115109121180
        0.000000000000000
        0.000000000000000
        0.000292736014160
        0.001036802971157
        0.002030722347358
        0.002126825751430
        0.001149232618383
        0.000327036825603
        0.000000000000000
        0.000000000000000
        0.000000000000000
        0.000000000000000
        0.000000000000000
        0.000296540876473
        0.000311252097834
        0.000000000000000
        0.000000000000000
        0.000000000000000
        0.000000000000000
        0.000000000000000
        0.000000000000000
        0.000000000000000
       -0.000228581571386
       -0.000345725963439
       -0.000235263336354
        0.000000000000000
        0.000000000000000
        0.000000000000000
        0.000000000000000
       -0.000121099169549
       -0.000528633930511
       -0.001376655735518
       -0.002006185380521
       -0.001564493891084
       -0.000709378186875
       -0.000185227130082
        0.000000000000000
        0.000000000000000
       -0.000231999414546
       -0.001406992157973
       -0.005062314214952
       -0.009186432130787
       -0.006510764659131
       -0.002466234443268
       -0.000611956641048
        0.000000000000000
        0.000029206495595
        0.000062918818777
       -0.000953358081158
       -0.008472941936028
       -0.024368796324751
       -0.017022205539964
       -0.005151673203608
       -0.001089986220936
       -0.000150529536891
        0.000166168799477
        0.000972041883108
        0.004490681611179
        0.012014687074385
        0.000011490784481
       -0.012207994733545
       -0.004640296179825
       -0.001021989786466
       -0.000177453933802
        0.000193713732483
        0.001361659558408
        0.006604827548992
        0.021008896367315
        0.024373846240224
        0.004283842932855
       -0.000688991310606
       -0.000407428982687
       -0.000087559562820
        0.000000000000000
        0.000830707694622
        0.003292070548394
        0.008038684472285
        0.009187466490444
        0.003486064549030
        0.000517846826212
       -0.000017216873843
        0.000000000000000
        0.000000000000000
        0.000268882749929
        0.000936793816636
        0.001869128028774
        0.002006343280539
        0.001064023685374
        0.000287542503595
        0.000029928630957
        0.000000000000000
        0.000000000000000
        0.000000000000000
        0.000000000000000
        0.000285544889467
        0.000345740536884
        0.000177388116346
        0.000000000000000
        0.000000000000000
        0.000000000000000
        0.000000000000000
        0.000000000000000
        0.000000000000000
       -0.000236797021651
       -0.000288137723959
        0.000000000000000
        0.000000000000000
        0.000000000000000
        0.000000000000000
        0.000000000000000
       -0.000154295894394
       -0.000651068006072
       -0.001527847434825
       -0.001985684836086
       -0.001397596901794
       -0.000554909622200
        0.000000000000000
        0.000000000000000
        0.000000000000000
       -0.000428495020949
       -0.002181243041095
       -0.006538844241143
       -0.008975418649588
       -0.005606961834710
       -0.002130757302305
       -0.000487327794836
        0.000000000000000
       -0.000032374383640
       -0.000501580532058
       -0.003965935401169
       -0.017802408478403
       -0.026726235461742
       -0.014465279320483
       -0.004676151235898
       -0.001047215335045
        0.000000000000000
        0.000023405321735
        0.000002359150422
       -0.001349009325437
       -0.010347583388626
       -0.028601262579311
       -0.019569029661075
       -0.005808657738476
       -0.001204161989781
       -0.000165060686988
        0.000000000000000
        0.000429040148806
        0.001368433451665
        0.001723169008301
       -0.003116551032839
       -0.007238297011904
       -0.002849344261518
       -0.000699737876185
       -0.000112374406602
        0.000000000000000
        0.000330410521937
        0.001194536282317
        0.002333151490965
        0.001889479962535
       -0.000243944915162
       -0.000490004432725
       -0.000194988604029
        0.000000000000000
        0.000000000000000
        0.000000000000000
        0.000402427517796
        0.000797540613853
        0.000813234174826
        0.000346218963018
        0.000032897135239
       -0.000014893778367
        0.000000000000000
        0.000000000000000
        0.000000000000000
        0.000000000000000
        0.000000000000000
        0.000152589884450
        0.000097318873506
        0.000000000000000
        0.000000000000000
        0.000000000000000
        0.000000000000000
        0.000000000000000
        0.000000000000000
        0.000000000000000
        0.000000000000000
        0.000000000000000
        0.000000000000000
        0.000000000000000
        0.000000000000000
        0.000000000000000
        0.000000000000000
       -0.000373910467236
       -0.000865867779907
       -0.001053842248394
       -0.000664555844505
        0.000000000000000
        0.000000000000000
        0.000000000000000
        0.000000000000000
       -0.000279261074437
       -0.001277458284461
       -0.003152968474379
       -0.003996742782266
       -0.002611751662638
       -0.000955569867231
        0.000000000000000
        0.000000000000000
        0.000000000000000
       -0.000449888790880
       -0.002279500640303
       -0.006833483450166
       -0.009455157659815
       -0.005941539242669
       -0.002259704321191
       -0.000517110823645
        0.000000000000000
        0.000000000000000
       -0.000284330027777
       -0.001669286443887
       -0.005937061176511
       -0.010781912525241
       -0.007646092488971
       -0.002876048330452
       -0.000705592533872
        0.000000000000000
        0.000000000000000
       -0.000024267590008
       -0.000366568033995
       -0.001785357614162
       -0.004114950214438
       -0.003993486114538
       -0.001761326660042
       -0.000476406270278
        0.000000000000000
        0.000000000000000
        0.000000000000000
        0.000111938583414
       -0.000005334799185
       -0.000529911497651
       -0.000878505161961
       -0.000528188859769
       -0.000162072119249
        0.000000000000000
        0.000000000000000
        0.000000000000000
        0.000000000000000
        0.000128585561329
        0.000073734521535
       -0.000053562397181
       -0.000065386532394
        0.000000000000000
        0.000000000000000
        0.000000000000000
        0.000000000000000
        0.000000000000000
        0.000000000000000
        0.000000000000000
        0.000000000000000
        0.000000000000000
        0.000000000000000
        0.000000000000000
        0.000000000000000
        0.000000000000000
        0.000000000000000
        0.000000000000000
        0.000000000000000
        0.000000000000000
        0.000000000000000
        0.000000000000000
        0.000000000000000
        0.000000000000000
        0.000000000000000
        0.000000000000000
       -0.000271646739076
       -0.000311274724226
        0.000000000000000
        0.000000000000000
        0.000000000000000
        0.000000000000000
        0.000000000000000
        0.000000000000000
       -0.000384614637766
       -0.000891480255204
       -0.001088606403882
       -0.000689047507074
        0.000000000000000
        0.000000000000000
        0.000000000000000
        0.000000000000000
       -0.000166019462860
       -0.000698041897244
       -0.001645893588628
       -0.002154224834978
       -0.001524387653708
       -0.000609144838011
        0.000000000000000
        0.000000000000000
        0.000000000000000
       -0.000140067030059
       -0.000615594230435
       -0.001605386177565
       -0.002354613485133
       -0.001846747518545
       -0.000837597308293
       -0.000219568323315
        0.000000000000000
        0.000000000000000
        0.000000000000000
       -0.000254266030046
       -0.000763202725512
       -0.001296169586325
       -0.001155967450077
       -0.000574855892280
       -0.000169110307159
        0.000000000000000
        0.000000000000000
        0.000000000000000
        0.000000000000000
       -0.000172933334345
       -0.000361342145394
       -0.000379491731743
       -0.000203865512937
        0.000000000000000
        0.000000000000000
        0.000000000000000
        0.000000000000000
        0.000000000000000
        0.000000000000000
       -0.000046588117507
       -0.000061879956950
        0.000000000000000
        0.000000000000000
        0.000000000000000
        0.000000000000000
        0.000000000000000
        0.000000000000000
        0.000000000000000
        0.000000000000000
        0.000000000000000
        0.000000000000000
        0.000000000000000
        0.000000000000000
        0.000000000000000
        0.000000000000000
        0.000000000000000
        0.000000000000000
        0.000000000000000
        0.000000000000000
        0.000000000000000
        0.000000000000000
        0.000000000000000
        0.000000000000000
        0.000000000000000
        0.000000000000000
        0.000000000000000
        0.000000000000000
        0.000000000000000
        0.000000000000000
        0.000000000000000
        0.000000000000000
        0.000000000000000
        0.000000000000000
        0.000000000000000
        0.000000000000000
        0.000000000000000
        0.000000000000000
        0.000000000000000
        0.000000000000000
        0.000000000000000
        0.000000000000000
        0.000000000000000
        0.000000000000000
       -0.000260422161042
       -0.000318379451673
        0.000000000000000
        0.000000000000000
        0.000000000000000
        0.000000000000000
        0.000000000000000
        0.000000000000000
        0.000000000000000
       -0.000264524840262
       -0.000405769901465
       -0.000279942404877
        0.000000000000000
        0.000000000000000
        0.000000000000000
        0.000000000000000
        0.000000000000000
        0.000000000000000
        0.000000000000000
       -0.000225991439849
       -0.000203263941340
        0.000000000000000
        0.000000000000000
        0.000000000000000
        0.000000000000000
        0.000000000000000
        0.000000000000000
        0.000000000000000
        0.000000000000000
        0.000000000000000
        0.000000000000000
        0.000000000000000
        0.000000000000000
        0.000000000000000
        0.000000000000000
        0.000000000000000
        0.000000000000000
        0.000000000000000
        0.000000000000000
        0.000000000000000
        0.000000000000000
        0.000000000000000
        0.000000000000000
        0.000000000000000
        0.000000000000000
        0.000000000000000
        0.000000000000000
        0.000000000000000
        0.000000000000000
        0.000000000000000
        0.000000000000000
END_DATAGRID_3D
END_BLOCK_DATAGRID_3D
