ATOMS
         C    7.558905    7.558905    7.558905
         H    8.755769    8.755769    8.755769
         H    6.362040    6.362040    8.755769
         H    8.755769    6.362040    6.362040
         H    6.362040    8.755769    6.362040
BEGIN_BLOCK_DATAGRID_3D
units: coords = b, function = 1/hbar/H*b^-2
BEGIN_DATAGRID_3D_function
      9      9      9
0.0 0.0 0.0
   15.117809    0.000000    0.000000
    0.000000   15.117809    0.000000
    0.000000    0.000000   15.117809
        0.000000000000000
        0.000000000000000
        0.000000000000000
        0.000000000000000
        0.000000000000000
        0.000000000000000
        0.000000000000000
        0.000000000000000
        0.000000000000000
        0.000000000000000
        0.000000000000000
        0.000000000000000
        0.000000000000000
        0.000000000000000
        0.000000000000000
        0.000000000000000
        0.000000000000000
        0.000000000000000
        0.000000000000000
        0.000000000000000
        0.000000000000000
        0.000000000000000
        0.000000000000000
        0.000000000000000
        0.000000000000000
        0.000000000000000
        0.000000000000000
        0.000000000000000
        0.000000000000000
        0.000000000000000
        0.000000000000000
       -0.000000000175305
        0.000000000009131
        0.000000000000000
        0.000000000000000
        0.000000000000000
        0.000000000000000
        0.000000000000000
        0.000000000000000
        0.000000000008656
       -0.000000000519489
        0.000000000009131
        0.000000000000000
        0.000000000000000
        0.000000000000000
        0.000000000000000
        0.000000000000000
        0.000000000000000
        0.000000000008656
       -0.000000000175539
        0.000000000000000
        0.000000000000000
        0.000000000000000
        0.000000000000000
        0.000000000000000
        0.000000000000000
        0.000000000000000
        0.000000000000000
        0.000000000000000
        0.000000000000000
        0.000000000000000
        0.000000000000000
        0.000000000000000
        0.000000000000000
        0.000000000000000
        0.000000000000000
        0.000000000000000
        0.000000000000000
        0.000000000000000
        0.000000000000000
        0.000000000000000
        0.000000000000000
        0.000000000000000
        0.000000000000000
        0.000000000000000
        0.000000000000000
        0.000000000000000
        0.000000000000000
        0.000000000000000
        0.000000000000000
        0.000000000000000
        0.000000000000000
        0.000000000000000
        0.000000000000000
        0.000000000000000
        0.000000000000000
        0.000000000000000
        0.000000000000000
        0.000000000000000
        0.000000000000000
        0.000000000000000
        0.000000000000000
        0.000000000000000
        0.000000000000000
       -0.000000000318254
        0.000000000295270
        0.000000000000000
        0.000000000000000
        0.000000000000000
        0.000000000000000
        0.000000000000000
        0.000000000000000
       -0.000000000592596
       -0.000000000391099
        0.000000000298226
        0.000000000338299
        0.000000000000000
        0.000000000000000
        0.000000000000000
        0.000000000000000
       -0.000000000379087
       -0.000000000875538
        0.000000000382991
       -0.000000000407759
        0.000000000491690
        0.000000000000038
        0.000000000000000
        0.000000000000000
        0.000000000000514
       -0.000000000652470
        0.000000000346479
       -0.000000000291489
        0.000000000356950
       -0.000000000647383
        0.000000000000038
        0.000000000000000
        0.000000000000000
        0.000000000000514
        0.000000000489886
       -0.000000000420367
        0.000000000366838
       -0.000000000873488
       -0.000000000377663
        0.000000000000000
        0.000000000000000
        0.000000000000000
        0.000000000000000
        0.000000000338915
        0.000000000297129
       -0.000000000396090
       -0.000000000590069
        0.000000000000000
        0.000000000000000
        0.000000000000000
        0.000000000000000
        0.000000000000000
        0.000000000000000
        0.000000000294086
       -0.000000000321064
        0.000000000000000
        0.000000000000000
        0.000000000000000
        0.000000000000000
        0.000000000000000
        0.000000000000000
        0.000000000000000
        0.000000000000000
        0.000000000000000
        0.000000000000000
        0.000000000000000
        0.000000000000000
        0.000000000000000
        0.000000000000000
        0.000000000000000
        0.000000000000000
        0.000000000000000
        0.000000000000000
        0.000000000000000
        0.000000000000000
        0.000000000000000
        0.000000000000000
        0.000000000000000
        0.000000000000000
        0.000000000000000
       -0.000000000850314
        0.000000000063263
       -0.000000000088310
        0.000000000567723
        0.000000000000000
        0.000000000000000
        0.000000000000000
        0.000000000000000
       -0.000000001148016
        0.000000000203929
        0.000000002359332
       -0.000000003327384
       -0.000000000941453
        0.000000000181222
        0.000000000000000
        0.000000000000000
       -0.000000000163902
       -0.000000000619000
        0.000000008696198
       -0.000000005167279
       -0.000000016292927
       -0.000000002094000
        0.000000000159505
        0.000000000000000
        0.000000000000000
       -0.000000000371732
        0.000000002620279
       -0.000000005972811
       -0.000000015779646
       -0.000000006062837
        0.000000002659576
       -0.000000000369736
        0.000000000000000
        0.000000000000000
        0.000000000155668
       -0.000000002120545
       -0.000000016300851
       -0.000000005236900
        0.000000008709989
       -0.000000000602591
       -0.000000000164005
        0.000000000000000
        0.000000000000000
        0.000000000180124
       -0.000000000933572
       -0.000000003409693
        0.000000002342618
        0.000000000218915
       -0.000000001140608
        0.000000000000000
        0.000000000000000
        0.000000000000000
        0.000000000000000
        0.000000000566544
       -0.000000000091305
        0.000000000059164
       -0.000000000848620
        0.000000000000000
        0.000000000000000
        0.000000000000000
        0.000000000000000
        0.000000000000000
        0.000000000000000
        0.000000000000000
        0.000000000000000
        0.000000000000000
        0.000000000000000
        0.000000000000000
        0.000000000000000
        0.000000000000000
        0.000000000000000
        0.000000000000000
        0.000000000000000
       -0.000000000444479
        0.000000000300997
        0.000000000000000
        0.000000000000000
        0.000000000000000
        0.000000000000000
        0.000000000000000
       -0.000000000541863
       -0.000000001726174
       -0.000000004396050
        0.000000002725802
        0.000000002159887
       -0.000000000136906
        0.000000000000000
        0.000000000000000
        0.000000000081499
       -0.000000002613756
        0.000000040429851
        0.000000072782012
       -0.000000053405022
       -0.000000043771556
        0.000000002659320
        0.000000000000000
        0.000000000000000
       -0.000000002721952
        0.000000036427404
        0.000000125534699
       -0.000000205966382
       -0.000000394758468
       -0.000000028061015
        0.000000001948768
        0.000000000005222
        0.000000000004827
       -0.000000004915158
        0.000000072355104
       -0.000000210073234
       -0.000000509034517
       -0.000000212584026
        0.000000072605501
       -0.000000004919381
        0.000000000005222
        0.000000000004827
        0.000000001923782
       -0.000000028071493
       -0.000000392381718
       -0.000000205133178
        0.000000126027540
        0.000000036550229
       -0.000000002734225
        0.000000000000000
        0.000000000000000
        0.000000002644855
       -0.000000043693801
       -0.000000054014543
        0.000000072925324
        0.000000040562773
       -0.000000002612908
        0.000000000082089
        0.000000000000000
        0.000000000000000
       -0.000000000138225
        0.000000002152521
        0.000000002724925
       -0.000000004412219
       -0.000000001730049
       -0.000000000540440
        0.000000000000000
        0.000000000000000
        0.000000000000000
        0.000000000000000
        0.000000000000000
        0.000000000302833
       -0.000000000441869
        0.000000000000000
        0.000000000000000
        0.000000000000000
        0.000000000000000
        0.000000000000000
        0.000000000000000
        0.000000000000000
       -0.000000000218545
       -0.000000000001845
        0.000000000216041
        0.000000000000000
        0.000000000000000
        0.000000000000000
        0.000000000000000
        0.000000000075916
       -0.000000000900706
       -0.000000008229305
        0.000000000020885
        0.000000008254493
        0.000000000906320
       -0.000000000072750
        0.000000000000000
        0.000000000000000
       -0.000000001345800
        0.000000018691255
        0.000000171232244
       -0.000000000579081
       -0.000000171693954
       -0.000000018739333
        0.000000001359458
        0.000000000000000
       -0.000000000008528
       -0.000000007693776
        0.000000145037922
        0.000000601123620
        0.000000000480422
       -0.000000604552932
       -0.000000145503127
        0.000000007751612
        0.000000000009241
        0.000000000000000
        0.000000000000000
       -0.000000000000000
        0.000000000000000
        0.000000000000000
       -0.000000000000000
        0.000000000000000
        0.000000000000000
        0.000000000000000
        0.000000000008528
        0.000000007693776
       -0.000000145037922
       -0.000000601123620
       -0.000000000480422
        0.000000604552932
        0.000000145503127
       -0.000000007751612
       -0.000000000009241
        0.000000000000000
        0.000000001345800
       -0.000000018691255
       -0.000000171232244
        0.000000000579081
        0.000000171693954
        0.000000018739333
       -0.000000001359458
        0.000000000000000
        0.000000000000000
       -0.000000000075916
        0.000000000900706
        0.000000008229305
       -0.000000000020885
       -0.000000008254493
       -0.000000000906320
        0.000000000072750
        0.000000000000000
        0.000000000000000
        0.000000000000000
        0.000000000000000
        0.000000000218545
        0.000000000001845
       -0.000000000216041
        0.000000000000000
        0.000000000000000
        0.000000000000000
        0.000000000000000
        0.000000000000000
        0.000000000000000
       -0.000000000302833
        0.000000000441869
        0.000000000000000
        0.000000000000000
        0.000000000000000
        0.000000000000000
        0.000000000000000
        0.000000000138225
       -0.000000002152521
       -0.000000002724925
        0.000000004412219
        0.000000001730049
        0.000000000540440
        0.000000000000000
        0.000000000000000
        0.000000000000000
       -0.000000002644855
        0.000000043693801
        0.000000054014543
       -0.000000072925324
       -0.000000040562773
        0.000000002612908
       -0.000000000082089
        0.000000000000000
       -0.000000000004827
       -0.000000001923782
        0.000000028071493
        0.000000392381718
        0.000000205133178
       -0.000000126027540
       -0.000000036550229
        0.000000002734225
        0.000000000000000
       -0.000000000004827
        0.000000004915158
       -0.000000072355104
        0.000000210073234
        0.000000509034516
        0.000000212584026
       -0.000000072605501
        0.000000004919381
       -0.000000000005222
        0.000000000000000
        0.000000002721952
       -0.000000036427404
       -0.000000125534699
        0.000000205966382
        0.000000394758468
        0.000000028061015
       -0.000000001948768
       -0.000000000005222
        0.000000000000000
       -0.000000000081499
        0.000000002613756
       -0.000000040429851
       -0.000000072782012
        0.000000053405022
        0.000000043771556
       -0.000000002659320
        0.000000000000000
        0.000000000000000
        0.000000000000000
        0.000000000541863
        0.000000001726174
        0.000000004396050
       -0.000000002725802
       -0.000000002159887
        0.000000000136906
        0.000000000000000
        0.000000000000000
        0.000000000000000
        0.000000000000000
        0.000000000000000
        0.000000000444479
       -0.000000000300997
        0.000000000000000
        0.000000000000000
        0.000000000000000
        0.000000000000000
        0.000000000000000
        0.000000000000000
        0.000000000000000
        0.000000000000000
        0.000000000000000
        0.000000000000000
        0.000000000000000
        0.000000000000000
        0.000000000000000
        0.000000000000000
       -0.000000000566544
        0.000000000091305
       -0.000000000059164
        0.000000000848620
        0.000000000000000
        0.000000000000000
        0.000000000000000
        0.000000000000000
       -0.000000000180124
        0.000000000933572
        0.000000003409693
       -0.000000002342618
       -0.000000000218915
        0.000000001140608
        0.000000000000000
        0.000000000000000
        0.000000000000000
       -0.000000000155668
        0.000000002120545
        0.000000016300851
        0.000000005236900
       -0.000000008709989
        0.000000000602591
        0.000000000164005
        0.000000000000000
        0.000000000000000
        0.000000000371732
       -0.000000002620279
        0.000000005972811
        0.000000015779646
        0.000000006062837
       -0.000000002659576
        0.000000000369736
        0.000000000000000
        0.000000000000000
        0.000000000163902
        0.000000000619000
       -0.000000008696198
        0.000000005167279
        0.000000016292927
        0.000000002094000
       -0.000000000159505
        0.000000000000000
        0.000000000000000
        0.000000000000000
        0.000000001148016
       -0.000000000203929
       -0.000000002359332
        0.000000003327384
        0.000000000941453
       -0.000000000181222
        0.000000000000000
        0.000000000000000
        0.000000000000000
        0.000000000000000
        0.000000000850314
       -0.000000000063263
        0.000000000088310
       -0.000000000567723
        0.000000000000000
        0.000000000000000
        0.000000000000000
        0.000000000000000
        0.000000000000000
        0.000000000000000
        0.000000000000000
        0.000000000000000
        0.000000000000000
        0.000000000000000
        0.000000000000000
        0.000000000000000
        0.000000000000000
        0.000000000000000
        0.000000000000000
        0.000000000000000
        0.000000000000000
        0.000000000000000
        0.000000000000000
        0.000000000000000
        0.000000000000000
        0.000000000000000
        0.000000000000000
       -0.000000000294086
        0.000000000321064
        0.000000000000000
        0.000000000000000
        0.000000000000000
        0.000000000000000
        0.000000000000000
        0.000000000000000
       -0.000000000338915
       -0.000000000297129
        0.000000000396090
        0.000000000590069
        0.000000000000000
        0.000000000000000
        0.000000000000000
        0.000000000000000
       -0.000000000000514
       -0.000000000489886
        0.000000000420367
       -0.000000000366838
        0.000000000873488
        0.000000000377663
        0.000000000000000
        0.000000000000000
        0.000000000000000
       -0.000000000000514
        0.000000000652470
       -0.000000000346479
        0.000000000291489
       -0.000000000356950
        0.000000000647383
       -0.000000000000038
        0.000000000000000
        0.000000000000000
        0.000000000000000
        0.000000000379087
        0.000000000875538
       -0.000000000382991
        0.000000000407759
       -0.000000000491690
       -0.000000000000038
        0.000000000000000
        0.000000000000000
        0.000000000000000
        0.000000000000000
        0.000000000592596
        0.000000000391099
       -0.000000000298226
       -0.000000000338299
        0.000000000000000
        0.000000000000000
        0.000000000000000
        0.000000000000000
        0.000000000000000
        0.000000000000000
        0.000000000318254
       -0.000000000295270
        0.000000000000000
        0.000000000000000
        0.000000000000000
        0.000000000000000
        0.000000000000000
        0.000000000000000
        0.000000000000000
        0.000000000000000
        0.000000000000000
        0.000000000000000
        0.000000000000000
        0.000000000000000
        0.000000000000000
        0.000000000000000
        0.000000000000000
        0.000000000000000
        0.000000000000000
        0.000000000000000
        0.000000000000000
        0.000000000000000
        0.000000000000000
        0.000000000000000
        0.000000000000000
        0.000000000000000
        0.000000000000000
        0.000000000000000
        0.000000000000000
        0.000000000000000
        0.000000000000000
        0.000000000000000
        0.000000000000000
        0.000000000000000
        0.000000000000000
        0.000000000000000
        0.000000000000000
        0.000000000000000
        0.000000000000000
        0.000000000000000
        0.000000000000000
        0.000000000000000
        0.000000000000000
        0.000000000000000
       -0.000000000008656
        0.000000000175539
        0.000000000000000
        0.000000000000000
        0.000000000000000
        0.000000000000000
        0.000000000000000
        0.000000000000000
        0.000000000000000
       -0.000000000008656
        0.000000000519489
       -0.000000000009131
        0.000000000000000
        0.000000000000000
        0.000000000000000
        0.000000000000000
        0.000000000000000
        0.000000000000000
        0.000000000000000
        0.000000000175305
       -0.000000000009131
        0.000000000000000
        0.000000000000000
        0.000000000000000
        0.000000000000000
        0.000000000000000
        0.000000000000000
        0.000000000000000
        0.000000000000000
        0.000000000000000
        0.000000000000000
        0.000000000000000
        0.000000000000000
        0.000000000000000
        0.000000000000000
        0.000000000000000
        0.000000000000000
        0.000000000000000
        0.000000000000000
        0.000000000000000
        0.000000000000000
        0.000000000000000
        0.000000000000000
        0.000000000000000
        0.000000000000000
        0.000000000000000
        0.000000000000000
        0.000000000000000
        0.000000000000000
        0.000000000000000
        0.000000000000000
END_DATAGRID_3D
END_BLOCK_DATAGRID_3D
