ATOMS
         C    7.558905    7.558905    7.558905
         H    8.755769    8.755769    8.755769
         H    6.362040    6.362040    8.755769
         H    8.755769    6.362040    6.362040
         H    6.362040    8.755769    6.362040
BEGIN_BLOCK_DATAGRID_3D
units: coords = b, function = sqrt(b^-3)
BEGIN_DATAGRID_3D_function
      9      9      9
0.0 0.0 0.0
   15.117809    0.000000    0.000000
    0.000000   15.117809    0.000000
    0.000000    0.000000   15.117809
        0.000000000000000
        0.000000000000000
        0.000000000000000
        0.000000000000000
        0.000000000000000
        0.000000000000000
        0.000000000000000
        0.000000000000000
        0.000000000000000
        0.000000000000000
        0.000000000000000
        0.000000000000000
        0.000000000000000
        0.000000000000000
        0.000000000000000
        0.000000000000000
        0.000000000000000
        0.000000000000000
        0.000000000000000
        0.000000000000000
        0.000000000000000
        0.000000000000000
        0.000000000000000
        0.000000000000000
        0.000000000000000
        0.000000000000000
        0.000000000000000
        0.000000000000000
        0.000000000000000
        0.000000000000000
        0.000000000000000
        0.000735053373652
        0.000512124014126
        0.000000000000000
        0.000000000000000
        0.000000000000000
        0.000000000000000
        0.000000000000000
        0.000000000000000
        0.001175307296223
        0.001470562367864
        0.000797767965442
        0.000000000000000
        0.000000000000000
        0.000000000000000
        0.000000000000000
        0.000000000000000
        0.000000000000000
        0.001170457287289
        0.001237911091571
        0.000000000000000
        0.000000000000000
        0.000000000000000
        0.000000000000000
        0.000000000000000
        0.000000000000000
        0.000000000000000
        0.000000000000000
        0.000000000000000
        0.000000000000000
        0.000000000000000
        0.000000000000000
        0.000000000000000
        0.000000000000000
        0.000000000000000
        0.000000000000000
        0.000000000000000
        0.000000000000000
        0.000000000000000
        0.000000000000000
        0.000000000000000
        0.000000000000000
        0.000000000000000
        0.000000000000000
        0.000000000000000
        0.000000000000000
        0.000000000000000
        0.000000000000000
        0.000000000000000
        0.000000000000000
        0.000000000000000
        0.000000000000000
        0.000000000000000
        0.000000000000000
        0.000000000000000
        0.000000000000000
        0.000000000000000
        0.000000000000000
        0.000000000000000
        0.000000000000000
        0.000000000000000
        0.000000000000000
        0.000000000000000
        0.000000000000000
        0.000023090956326
       -0.000042617625405
        0.000000000000000
        0.000000000000000
        0.000000000000000
        0.000000000000000
        0.000000000000000
        0.000000000000000
        0.000842232856848
        0.000918784767834
        0.000397540198155
        0.000044663588072
        0.000000000000000
        0.000000000000000
        0.000000000000000
        0.000000000000000
        0.001751691567501
        0.003684570187914
        0.004186603770710
        0.002316281237625
        0.000627265126300
        0.000083376002922
        0.000000000000000
        0.000000000000000
        0.001071818619512
        0.003777579586664
        0.007671175640369
        0.008533562065874
        0.004835519350841
        0.001480161192263
        0.000226823883136
        0.000000000000000
        0.000000000000000
        0.001133646524776
        0.003999108676769
        0.007857377886805
        0.008318325135219
        0.004583224794283
        0.001357515419287
        0.000000000000000
        0.000000000000000
        0.000000000000000
        0.000000000000000
        0.002102051065372
        0.004227056618414
        0.004336144775261
        0.002265782306818
        0.000000000000000
        0.000000000000000
        0.000000000000000
        0.000000000000000
        0.000000000000000
        0.000000000000000
        0.001258371261216
        0.001274216003321
        0.000000000000000
        0.000000000000000
        0.000000000000000
        0.000000000000000
        0.000000000000000
        0.000000000000000
        0.000000000000000
        0.000000000000000
        0.000000000000000
        0.000000000000000
        0.000000000000000
        0.000000000000000
        0.000000000000000
        0.000000000000000
        0.000000000000000
        0.000000000000000
        0.000000000000000
        0.000000000000000
        0.000000000000000
        0.000000000000000
        0.000000000000000
        0.000000000000000
        0.000000000000000
        0.000000000000000
        0.000000000000000
       -0.000260089040345
       -0.000657910353063
       -0.000773060045163
       -0.000448367481603
        0.000000000000000
        0.000000000000000
        0.000000000000000
        0.000000000000000
        0.000856564221182
        0.001373332991049
        0.000507161707625
       -0.000984473812690
       -0.000906321513019
       -0.000334037916843
        0.000000000000000
        0.000000000000000
        0.001409207451631
        0.005341073106763
        0.011455794840497
        0.012385920041218
        0.003863690160370
        0.000063429756374
       -0.000271713544840
        0.000000000000000
        0.000000000000000
        0.003288091047785
        0.013114495918831
        0.032590982343153
        0.039077012664327
        0.016601031173670
        0.003302752768400
        0.000269666080460
        0.000000000000000
        0.000000000000000
        0.003636169870519
        0.014634320507257
        0.035485120960461
        0.036797638812220
        0.016423674414171
        0.004067511728294
        0.000511398503150
        0.000000000000000
        0.000000000000000
        0.001949439280966
        0.007508202107759
        0.015676310139299
        0.015899343474095
        0.008030047904879
        0.002136300537166
        0.000000000000000
        0.000000000000000
        0.000000000000000
        0.000000000000000
        0.002062558327139
        0.004133400033268
        0.004210166961730
        0.002177800212300
        0.000000000000000
        0.000000000000000
        0.000000000000000
        0.000000000000000
        0.000000000000000
        0.000000000000000
        0.000000000000000
        0.000000000000000
        0.000000000000000
        0.000000000000000
        0.000000000000000
        0.000000000000000
        0.000000000000000
        0.000000000000000
        0.000000000000000
        0.000000000000000
       -0.000636424466774
       -0.000567706479993
        0.000000000000000
        0.000000000000000
        0.000000000000000
        0.000000000000000
        0.000000000000000
       -0.000671125851381
       -0.002022446450101
       -0.003457581380986
       -0.003079092034351
       -0.001536324321333
       -0.000460816586707
        0.000000000000000
        0.000000000000000
        0.000088603369212
       -0.000419049078370
       -0.003603119142615
       -0.009373248412852
       -0.009604209167771
       -0.004462656926556
       -0.001264777013630
        0.000000000000000
        0.000000000000000
        0.001910235886636
        0.006771366849383
        0.013066690322431
        0.004711449498758
       -0.012530357457169
       -0.006484743642697
       -0.001827959790303
       -0.000317108899084
        0.000749491412283
        0.005296870235160
        0.025824217004265
        0.083658437996989
        0.103667176422016
        0.024547577583779
       -0.000114972003315
       -0.001034643061875
       -0.000255363763165
        0.000835544007646
        0.006183801392276
        0.031297675412807
        0.103685629989838
        0.103466237839459
        0.032634644164842
        0.004858652493787
        0.000202091938855
        0.000000000000000
        0.000000000000000
        0.003556507381230
        0.014271782620993
        0.034407809713880
        0.035059119972476
        0.015221920695499
        0.003608454766895
        0.000406293816040
        0.000000000000000
        0.000000000000000
        0.001089991747591
        0.003825782753045
        0.007425732872634
        0.007707556944769
        0.004127835777414
        0.001164417886344
        0.000000000000000
        0.000000000000000
        0.000000000000000
        0.000000000000000
        0.000000000000000
        0.001084089050538
        0.001128283093011
        0.000000000000000
        0.000000000000000
        0.000000000000000
        0.000000000000000
        0.000000000000000
        0.000000000000000
        0.000000000000000
       -0.000835662452829
       -0.001252863369208
       -0.000845177649146
        0.000000000000000
        0.000000000000000
        0.000000000000000
        0.000000000000000
       -0.000450921126099
       -0.001950561473379
       -0.005033840147187
       -0.007270129321854
       -0.005619092532862
       -0.002525331976178
       -0.000653671383317
        0.000000000000000
        0.000000000000000
       -0.000863879218056
       -0.005191199268123
       -0.018508834388742
       -0.033290038642410
       -0.023386191579116
       -0.008780076069877
       -0.002159474421015
        0.000000000000000
        0.000109835961451
        0.000234203689720
       -0.003517205741193
       -0.030969504117229
       -0.088308635672504
       -0.061152181188275
       -0.018343794914569
       -0.003845697694629
       -0.000526795269871
        0.000624344046295
        0.003620739431446
        0.016562037007002
        0.043927491346750
        0.000012384773522
       -0.043852257227737
       -0.016527025672871
       -0.003605210310394
       -0.000620852356273
        0.000727718031705
        0.005071331763469
        0.024364566106310
        0.076805914211742
        0.088329343011541
        0.015397870461339
       -0.002454367735932
       -0.001437457356973
       -0.000306222165690
        0.000000000000000
        0.003093232140969
        0.012146724274262
        0.029392730719513
        0.033295253354443
        0.012523013432360
        0.001843752103840
       -0.000060756503218
        0.000000000000000
        0.000000000000000
        0.001001195184166
        0.003456711831186
        0.006834809289607
        0.007270917379605
        0.003821769212822
        0.001023709849350
        0.000105637767483
        0.000000000000000
        0.000000000000000
        0.000000000000000
        0.000000000000000
        0.001043907198508
        0.001252975424174
        0.000637263434940
        0.000000000000000
        0.000000000000000
        0.000000000000000
        0.000000000000000
        0.000000000000000
        0.000000000000000
       -0.000865671845638
       -0.001044511047316
        0.000000000000000
        0.000000000000000
        0.000000000000000
        0.000000000000000
        0.000000000000000
       -0.000574504863658
       -0.002402373496250
       -0.005586751064800
       -0.007195903639763
       -0.005019720872914
       -0.001975734652866
        0.000000000000000
        0.000000000000000
        0.000000000000000
       -0.001595617369562
       -0.008047770502962
       -0.023908946950360
       -0.032526448748744
       -0.020139618690382
       -0.007585500979110
       -0.001719851589606
        0.000000000000000
       -0.000121376398171
       -0.001868843894873
       -0.014627172825632
       -0.065088629396746
       -0.096858707338131
       -0.051965603617694
       -0.016647467085737
       -0.003695607389903
        0.000000000000000
        0.000088062580874
        0.000008665218029
       -0.004976856639147
       -0.037822027902475
       -0.103646469082977
       -0.070301888310713
       -0.020683190647186
       -0.004248511989727
       -0.000577653672396
        0.000000000000000
        0.001597589762585
        0.005048865156224
        0.006301849871838
       -0.011291123700081
       -0.025998714946731
       -0.010146718132172
       -0.002468635814115
       -0.000393189132650
        0.000000000000000
        0.001230253581873
        0.004407662813603
        0.008531359490320
        0.006847809986561
       -0.000875574998771
       -0.001744419201852
       -0.000688061572403
        0.000000000000000
        0.000000000000000
        0.000000000000000
        0.001484724944100
        0.002916374059893
        0.002947143884669
        0.001243607977984
        0.000117173958049
       -0.000052569452480
        0.000000000000000
        0.000000000000000
        0.000000000000000
        0.000000000000000
        0.000000000000000
        0.000552773280511
        0.000349617107056
        0.000000000000000
        0.000000000000000
        0.000000000000000
        0.000000000000000
        0.000000000000000
        0.000000000000000
        0.000000000000000
        0.000000000000000
        0.000000000000000
        0.000000000000000
        0.000000000000000
        0.000000000000000
        0.000000000000000
        0.000000000000000
       -0.001379507780000
       -0.003166218504500
       -0.003818975084504
       -0.002387330942636
        0.000000000000000
        0.000000000000000
        0.000000000000000
        0.000000000000000
       -0.001039781581231
       -0.004713592921232
       -0.011529106381057
       -0.014483880482341
       -0.009380738660446
       -0.003402324163296
        0.000000000000000
        0.000000000000000
        0.000000000000000
       -0.001675279858851
       -0.008410308389225
       -0.024986258196941
       -0.034264967588488
       -0.021341372409053
       -0.008044557940509
       -0.001824956276716
        0.000000000000000
        0.000000000000000
       -0.001058738124872
       -0.006158970912691
       -0.021707086012382
       -0.039071797952293
       -0.027464209320426
       -0.010239076734437
       -0.002489897004693
        0.000000000000000
        0.000000000000000
       -0.000090350500546
       -0.001352459371530
       -0.006527554492792
       -0.014911358467508
       -0.014343474326912
       -0.006270505884782
       -0.001681125041192
        0.000000000000000
        0.000000000000000
        0.000000000000000
        0.000412987367802
       -0.000019354813558
       -0.001920110773362
       -0.003155132884077
       -0.001880277361295
       -0.000571947193109
        0.000000000000000
        0.000000000000000
        0.000000000000000
        0.000000000000000
        0.000470089435613
        0.000267273608204
       -0.000192332068024
       -0.000232803217341
        0.000000000000000
        0.000000000000000
        0.000000000000000
        0.000000000000000
        0.000000000000000
        0.000000000000000
        0.000000000000000
        0.000000000000000
        0.000000000000000
        0.000000000000000
        0.000000000000000
        0.000000000000000
        0.000000000000000
        0.000000000000000
        0.000000000000000
        0.000000000000000
        0.000000000000000
        0.000000000000000
        0.000000000000000
        0.000000000000000
        0.000000000000000
        0.000000000000000
        0.000000000000000
       -0.000993071130149
       -0.001128378494129
        0.000000000000000
        0.000000000000000
        0.000000000000000
        0.000000000000000
        0.000000000000000
        0.000000000000000
       -0.001419000518233
       -0.003259875089646
       -0.003944952898035
       -0.002475313037154
        0.000000000000000
        0.000000000000000
        0.000000000000000
        0.000000000000000
       -0.000618159640842
       -0.002575699419975
       -0.006018396078971
       -0.007806671830213
       -0.005475109889783
       -0.002168832185809
        0.000000000000000
        0.000000000000000
        0.000000000000000
       -0.000521544561445
       -0.002271429228857
       -0.005870206497949
       -0.008532774008123
       -0.006632842670881
       -0.002981783319091
       -0.000774857498970
        0.000000000000000
        0.000000000000000
        0.000000000000000
       -0.000938092474782
       -0.002790642578122
       -0.004697041267027
       -0.004151765293993
       -0.002046415489584
       -0.000596762042109
        0.000000000000000
        0.000000000000000
        0.000000000000000
        0.000000000000000
       -0.000632232461581
       -0.001309421512693
       -0.001362932311342
       -0.000725834287016
        0.000000000000000
        0.000000000000000
        0.000000000000000
        0.000000000000000
        0.000000000000000
        0.000000000000000
       -0.000168783347479
       -0.000222301252311
        0.000000000000000
        0.000000000000000
        0.000000000000000
        0.000000000000000
        0.000000000000000
        0.000000000000000
        0.000000000000000
        0.000000000000000
        0.000000000000000
        0.000000000000000
        0.000000000000000
        0.000000000000000
        0.000000000000000
        0.000000000000000
        0.000000000000000
        0.000000000000000
        0.000000000000000
        0.000000000000000
        0.000000000000000
        0.000000000000000
        0.000000000000000
        0.000000000000000
        0.000000000000000
        0.000000000000000
        0.000000000000000
        0.000000000000000
        0.000000000000000
        0.000000000000000
        0.000000000000000
        0.000000000000000
        0.000000000000000
        0.000000000000000
        0.000000000000000
        0.000000000000000
        0.000000000000000
        0.000000000000000
        0.000000000000000
        0.000000000000000
        0.000000000000000
        0.000000000000000
        0.000000000000000
        0.000000000000000
       -0.000952040082389
       -0.001154139045876
        0.000000000000000
        0.000000000000000
        0.000000000000000
        0.000000000000000
        0.000000000000000
        0.000000000000000
        0.000000000000000
       -0.000967062550544
       -0.001470450312899
       -0.001005682179649
        0.000000000000000
        0.000000000000000
        0.000000000000000
        0.000000000000000
        0.000000000000000
        0.000000000000000
        0.000000000000000
       -0.000818704559915
       -0.000730213387062
        0.000000000000000
        0.000000000000000
        0.000000000000000
        0.000000000000000
        0.000000000000000
        0.000000000000000
        0.000000000000000
        0.000000000000000
        0.000000000000000
        0.000000000000000
        0.000000000000000
        0.000000000000000
        0.000000000000000
        0.000000000000000
        0.000000000000000
        0.000000000000000
        0.000000000000000
        0.000000000000000
        0.000000000000000
        0.000000000000000
        0.000000000000000
        0.000000000000000
        0.000000000000000
        0.000000000000000
        0.000000000000000
        0.000000000000000
        0.000000000000000
        0.000000000000000
        0.000000000000000
        0.000000000000000
END_DATAGRID_3D
END_BLOCK_DATAGRID_3D
