ATOMS
         C    7.558905    7.558905    7.558905
         H    8.755769    8.755769    8.755769
         H    6.362040    6.362040    8.755769
         H    8.755769    6.362040    6.362040
         H    6.362040    8.755769    6.362040
BEGIN_BLOCK_DATAGRID_3D
units: coords = b, function = 1/hbar/H*b^-2
BEGIN_DATAGRID_3D_function
      9      9      9
0.0 0.0 0.0
   15.117809    0.000000    0.000000
    0.000000   15.117809    0.000000
    0.000000    0.000000   15.117809
        0.000000000000000
        0.000000000000000
        0.000000000000000
        0.000000000000000
        0.000000000000000
        0.000000000000000
        0.000000000000000
        0.000000000000000
        0.000000000000000
        0.000000000000000
        0.000000000000000
        0.000000000000000
        0.000000000000000
        0.000000000000000
        0.000000000000000
        0.000000000000000
        0.000000000000000
        0.000000000000000
        0.000000000000000
        0.000000000000000
        0.000000000000000
        0.000000000000000
        0.000000000000000
        0.000000000000000
        0.000000000000000
        0.000000000000000
        0.000000000000000
        0.000000000000000
        0.000000000000000
        0.000000000000000
        0.000000000000000
       -0.000000000051335
        0.000000000003845
        0.000000000000000
        0.000000000000000
        0.000000000000000
        0.000000000000000
        0.000000000000000
        0.000000000000000
        0.000000000003772
       -0.000000000153233
        0.000000000003845
        0.000000000000000
        0.000000000000000
        0.000000000000000
        0.000000000000000
        0.000000000000000
        0.000000000000000
        0.000000000003772
       -0.000000000052189
        0.000000000000000
        0.000000000000000
        0.000000000000000
        0.000000000000000
        0.000000000000000
        0.000000000000000
        0.000000000000000
        0.000000000000000
        0.000000000000000
        0.000000000000000
        0.000000000000000
        0.000000000000000
        0.000000000000000
        0.000000000000000
        0.000000000000000
        0.000000000000000
        0.000000000000000
        0.000000000000000
        0.000000000000000
        0.000000000000000
        0.000000000000000
        0.000000000000000
        0.000000000000000
        0.000000000000000
        0.000000000000000
        0.000000000000000
        0.000000000000000
        0.000000000000000
        0.000000000000000
        0.000000000000000
        0.000000000000000
        0.000000000000000
        0.000000000000000
        0.000000000000000
        0.000000000000000
        0.000000000000000
        0.000000000000000
        0.000000000000000
        0.000000000000000
        0.000000000000000
        0.000000000000000
        0.000000000000000
        0.000000000000000
        0.000000000000000
       -0.000000000097048
        0.000000000091253
        0.000000000000000
        0.000000000000000
        0.000000000000000
        0.000000000000000
        0.000000000000000
        0.000000000000000
       -0.000000000178603
       -0.000000000104739
        0.000000000085688
        0.000000000098133
        0.000000000000000
        0.000000000000000
        0.000000000000000
        0.000000000000000
       -0.000000000112839
       -0.000000000246093
        0.000000000129029
       -0.000000000143209
        0.000000000147562
       -0.000000000000377
        0.000000000000000
        0.000000000000000
       -0.000000000000074
       -0.000000000187117
        0.000000000103625
       -0.000000000101787
        0.000000000114061
       -0.000000000184579
       -0.000000000000377
        0.000000000000000
        0.000000000000000
       -0.000000000000074
        0.000000000146335
       -0.000000000152323
        0.000000000120272
       -0.000000000245621
       -0.000000000110698
        0.000000000000000
        0.000000000000000
        0.000000000000000
        0.000000000000000
        0.000000000096874
        0.000000000087468
       -0.000000000110744
       -0.000000000175628
        0.000000000000000
        0.000000000000000
        0.000000000000000
        0.000000000000000
        0.000000000000000
        0.000000000000000
        0.000000000089295
       -0.000000000099407
        0.000000000000000
        0.000000000000000
        0.000000000000000
        0.000000000000000
        0.000000000000000
        0.000000000000000
        0.000000000000000
        0.000000000000000
        0.000000000000000
        0.000000000000000
        0.000000000000000
        0.000000000000000
        0.000000000000000
        0.000000000000000
        0.000000000000000
        0.000000000000000
        0.000000000000000
        0.000000000000000
        0.000000000000000
        0.000000000000000
        0.000000000000000
        0.000000000000000
        0.000000000000000
        0.000000000000000
        0.000000000000000
       -0.000000000255755
        0.000000000046422
       -0.000000000039800
        0.000000000164437
        0.000000000000000
        0.000000000000000
        0.000000000000000
        0.000000000000000
       -0.000000000340320
        0.000000000054469
        0.000000000569235
       -0.000000000956310
       -0.000000000188044
        0.000000000045526
        0.000000000000000
        0.000000000000000
       -0.000000000044738
       -0.000000000193210
        0.000000002317480
       -0.000000001414316
       -0.000000004183288
       -0.000000000631651
        0.000000000045109
        0.000000000000000
        0.000000000000000
       -0.000000000092126
        0.000000000608616
       -0.000000001537770
       -0.000000004020344
       -0.000000001559727
        0.000000000629623
       -0.000000000090329
        0.000000000000000
        0.000000000000000
        0.000000000043391
       -0.000000000652942
       -0.000000004238815
       -0.000000001451819
        0.000000002314175
       -0.000000000187567
       -0.000000000042968
        0.000000000000000
        0.000000000000000
        0.000000000043859
       -0.000000000180848
       -0.000000001013180
        0.000000000571943
        0.000000000055911
       -0.000000000329889
        0.000000000000000
        0.000000000000000
        0.000000000000000
        0.000000000000000
        0.000000000161065
       -0.000000000037751
        0.000000000040273
       -0.000000000252634
        0.000000000000000
        0.000000000000000
        0.000000000000000
        0.000000000000000
        0.000000000000000
        0.000000000000000
        0.000000000000000
        0.000000000000000
        0.000000000000000
        0.000000000000000
        0.000000000000000
        0.000000000000000
        0.000000000000000
        0.000000000000000
        0.000000000000000
        0.000000000000000
       -0.000000000129357
        0.000000000088743
        0.000000000000000
        0.000000000000000
        0.000000000000000
        0.000000000000000
        0.000000000000000
       -0.000000000154028
       -0.000000000493252
       -0.000000001314251
        0.000000000760711
        0.000000000677848
       -0.000000000048971
        0.000000000000000
        0.000000000000000
        0.000000000037155
       -0.000000000835697
        0.000000011396438
        0.000000021023945
       -0.000000014427754
       -0.000000012856750
        0.000000000829922
        0.000000000000000
        0.000000000000000
       -0.000000000784829
        0.000000010154380
        0.000000036276445
       -0.000000059427715
       -0.000000114582479
       -0.000000007464283
        0.000000000556117
        0.000000000004622
        0.000000000004554
       -0.000000001555152
        0.000000021603517
       -0.000000061338370
       -0.000000146666330
       -0.000000062669802
        0.000000021652535
       -0.000000001548466
        0.000000000004622
        0.000000000004554
        0.000000000544389
       -0.000000007528443
       -0.000000113338585
       -0.000000058060470
        0.000000036559928
        0.000000010169823
       -0.000000000787611
        0.000000000000000
        0.000000000000000
        0.000000000828486
       -0.000000012883228
       -0.000000014845603
        0.000000021130447
        0.000000011436609
       -0.000000000837759
        0.000000000039696
        0.000000000000000
        0.000000000000000
       -0.000000000050941
        0.000000000679099
        0.000000000756134
       -0.000000001323516
       -0.000000000497707
       -0.000000000150944
        0.000000000000000
        0.000000000000000
        0.000000000000000
        0.000000000000000
        0.000000000000000
        0.000000000090849
       -0.000000000128329
        0.000000000000000
        0.000000000000000
        0.000000000000000
        0.000000000000000
        0.000000000000000
        0.000000000000000
        0.000000000000000
       -0.000000000054699
       -0.000000000002793
        0.000000000053674
        0.000000000000000
        0.000000000000000
        0.000000000000000
        0.000000000000000
        0.000000000023678
       -0.000000000230552
       -0.000000002507654
        0.000000000030930
        0.000000002518619
        0.000000000236700
       -0.000000000021225
        0.000000000000000
        0.000000000000000
       -0.000000000359910
        0.000000004919536
        0.000000049650364
       -0.000000000658720
       -0.000000049818400
       -0.000000004930152
        0.000000000367607
        0.000000000000000
        0.000000000006908
       -0.000000002421541
        0.000000042302212
        0.000000196471372
       -0.000000001950270
       -0.000000198292269
       -0.000000042366807
        0.000000002441109
       -0.000000000006044
        0.000000000000000
        0.000000000000000
       -0.000000000000000
        0.000000000000000
        0.000000000000000
       -0.000000000000000
        0.000000000000000
        0.000000000000000
        0.000000000000000
       -0.000000000006908
        0.000000002421541
       -0.000000042302212
       -0.000000196471372
        0.000000001950270
        0.000000198292269
        0.000000042366807
       -0.000000002441109
        0.000000000006044
        0.000000000000000
        0.000000000359910
       -0.000000004919536
       -0.000000049650365
        0.000000000658720
        0.000000049818400
        0.000000004930152
       -0.000000000367607
        0.000000000000000
        0.000000000000000
       -0.000000000023678
        0.000000000230552
        0.000000002507654
       -0.000000000030930
       -0.000000002518619
       -0.000000000236700
        0.000000000021225
        0.000000000000000
        0.000000000000000
        0.000000000000000
        0.000000000000000
        0.000000000054699
        0.000000000002793
       -0.000000000053674
        0.000000000000000
        0.000000000000000
        0.000000000000000
        0.000000000000000
        0.000000000000000
        0.000000000000000
       -0.000000000090849
        0.000000000128329
        0.000000000000000
        0.000000000000000
        0.000000000000000
        0.000000000000000
        0.000000000000000
        0.000000000050941
       -0.000000000679099
       -0.000000000756134
        0.000000001323516
        0.000000000497707
        0.000000000150944
        0.000000000000000
        0.000000000000000
        0.000000000000000
       -0.000000000828486
        0.000000012883228
        0.000000014845603
       -0.000000021130447
       -0.000000011436609
        0.000000000837759
       -0.000000000039696
        0.000000000000000
       -0.000000000004554
       -0.000000000544389
        0.000000007528443
        0.000000113338585
        0.000000058060470
       -0.000000036559928
       -0.000000010169823
        0.000000000787611
        0.000000000000000
       -0.000000000004554
        0.000000001555152
       -0.000000021603517
        0.000000061338370
        0.000000146666330
        0.000000062669802
       -0.000000021652535
        0.000000001548466
       -0.000000000004622
        0.000000000000000
        0.000000000784829
       -0.000000010154380
       -0.000000036276445
        0.000000059427715
        0.000000114582479
        0.000000007464283
       -0.000000000556117
       -0.000000000004622
        0.000000000000000
       -0.000000000037155
        0.000000000835697
       -0.000000011396438
       -0.000000021023945
        0.000000014427754
        0.000000012856750
       -0.000000000829922
        0.000000000000000
        0.000000000000000
        0.000000000000000
        0.000000000154028
        0.000000000493252
        0.000000001314251
       -0.000000000760711
       -0.000000000677848
        0.000000000048971
        0.000000000000000
        0.000000000000000
        0.000000000000000
        0.000000000000000
        0.000000000000000
        0.000000000129357
       -0.000000000088743
        0.000000000000000
        0.000000000000000
        0.000000000000000
        0.000000000000000
        0.000000000000000
        0.000000000000000
        0.000000000000000
        0.000000000000000
        0.000000000000000
        0.000000000000000
        0.000000000000000
        0.000000000000000
        0.000000000000000
        0.000000000000000
       -0.000000000161065
        0.000000000037751
       -0.000000000040273
        0.000000000252634
        0.000000000000000
        0.000000000000000
        0.000000000000000
        0.000000000000000
       -0.000000000043859
        0.000000000180848
        0.000000001013180
       -0.000000000571943
       -0.000000000055911
        0.000000000329889
        0.000000000000000
        0.000000000000000
        0.000000000000000
       -0.000000000043391
        0.000000000652942
        0.000000004238815
        0.000000001451819
       -0.000000002314175
        0.000000000187567
        0.000000000042968
        0.000000000000000
        0.000000000000000
        0.000000000092126
       -0.000000000608616
        0.000000001537770
        0.000000004020344
        0.000000001559727
       -0.000000000629623
        0.000000000090329
        0.000000000000000
        0.000000000000000
        0.000000000044738
        0.000000000193210
       -0.000000002317480
        0.000000001414316
        0.000000004183288
        0.000000000631651
       -0.000000000045109
        0.000000000000000
        0.000000000000000
        0.000000000000000
        0.000000000340320
       -0.000000000054469
       -0.000000000569235
        0.000000000956310
        0.000000000188044
       -0.000000000045526
        0.000000000000000
        0.000000000000000
        0.000000000000000
        0.000000000000000
        0.000000000255755
       -0.000000000046422
        0.000000000039800
       -0.000000000164437
        0.000000000000000
        0.000000000000000
        0.000000000000000
        0.000000000000000
        0.000000000000000
        0.000000000000000
        0.000000000000000
        0.000000000000000
        0.000000000000000
        0.000000000000000
        0.000000000000000
        0.000000000000000
        0.000000000000000
        0.000000000000000
        0.000000000000000
        0.000000000000000
        0.000000000000000
        0.000000000000000
        0.000000000000000
        0.000000000000000
        0.000000000000000
        0.000000000000000
        0.000000000000000
       -0.000000000089295
        0.000000000099407
        0.000000000000000
        0.000000000000000
        0.000000000000000
        0.000000000000000
        0.000000000000000
        0.000000000000000
       -0.000000000096874
       -0.000000000087468
        0.000000000110744
        0.000000000175628
        0.000000000000000
        0.000000000000000
        0.000000000000000
        0.000000000000000
        0.000000000000074
       -0.000000000146335
        0.000000000152323
       -0.000000000120272
        0.000000000245621
        0.000000000110698
        0.000000000000000
        0.000000000000000
        0.000000000000000
        0.000000000000074
        0.000000000187117
       -0.000000000103625
        0.000000000101787
       -0.000000000114061
        0.000000000184579
        0.000000000000377
        0.000000000000000
        0.000000000000000
        0.000000000000000
        0.000000000112839
        0.000000000246093
       -0.000000000129029
        0.000000000143209
       -0.000000000147562
        0.000000000000377
        0.000000000000000
        0.000000000000000
        0.000000000000000
        0.000000000000000
        0.000000000178603
        0.000000000104739
       -0.000000000085688
       -0.000000000098133
        0.000000000000000
        0.000000000000000
        0.000000000000000
        0.000000000000000
        0.000000000000000
        0.000000000000000
        0.000000000097048
       -0.000000000091253
        0.000000000000000
        0.000000000000000
        0.000000000000000
        0.000000000000000
        0.000000000000000
        0.000000000000000
        0.000000000000000
        0.000000000000000
        0.000000000000000
        0.000000000000000
        0.000000000000000
        0.000000000000000
        0.000000000000000
        0.000000000000000
        0.000000000000000
        0.000000000000000
        0.000000000000000
        0.000000000000000
        0.000000000000000
        0.000000000000000
        0.000000000000000
        0.000000000000000
        0.000000000000000
        0.000000000000000
        0.000000000000000
        0.000000000000000
        0.000000000000000
        0.000000000000000
        0.000000000000000
        0.000000000000000
        0.000000000000000
        0.000000000000000
        0.000000000000000
        0.000000000000000
        0.000000000000000
        0.000000000000000
        0.000000000000000
        0.000000000000000
        0.000000000000000
        0.000000000000000
        0.000000000000000
        0.000000000000000
       -0.000000000003772
        0.000000000052189
        0.000000000000000
        0.000000000000000
        0.000000000000000
        0.000000000000000
        0.000000000000000
        0.000000000000000
        0.000000000000000
       -0.000000000003772
        0.000000000153233
       -0.000000000003845
        0.000000000000000
        0.000000000000000
        0.000000000000000
        0.000000000000000
        0.000000000000000
        0.000000000000000
        0.000000000000000
        0.000000000051335
       -0.000000000003845
        0.000000000000000
        0.000000000000000
        0.000000000000000
        0.000000000000000
        0.000000000000000
        0.000000000000000
        0.000000000000000
        0.000000000000000
        0.000000000000000
        0.000000000000000
        0.000000000000000
        0.000000000000000
        0.000000000000000
        0.000000000000000
        0.000000000000000
        0.000000000000000
        0.000000000000000
        0.000000000000000
        0.000000000000000
        0.000000000000000
        0.000000000000000
        0.000000000000000
        0.000000000000000
        0.000000000000000
        0.000000000000000
        0.000000000000000
        0.000000000000000
        0.000000000000000
        0.000000000000000
        0.000000000000000
END_DATAGRID_3D
END_BLOCK_DATAGRID_3D
