ATOMS
         C    7.558905    7.558905    7.558905
         H    8.755769    8.755769    8.755769
         H    6.362040    6.362040    8.755769
         H    8.755769    6.362040    6.362040
         H    6.362040    8.755769    6.362040
BEGIN_BLOCK_DATAGRID_3D
units: coords = b, function = sqrt(b^-3)
BEGIN_DATAGRID_3D_function
      9      9      9
0.0 0.0 0.0
   15.117809    0.000000    0.000000
    0.000000   15.117809    0.000000
    0.000000    0.000000   15.117809
        0.000000000000000
        0.000000000000000
        0.000000000000000
        0.000000000000000
        0.000000000000000
        0.000000000000000
        0.000000000000000
        0.000000000000000
        0.000000000000000
        0.000000000000000
        0.000000000000000
        0.000000000000000
        0.000000000000000
        0.000000000000000
        0.000000000000000
        0.000000000000000
        0.000000000000000
        0.000000000000000
        0.000000000000000
        0.000000000000000
        0.000000000000000
        0.000000000000000
        0.000000000000000
        0.000000000000000
        0.000000000000000
        0.000000000000000
        0.000000000000000
        0.000000000000000
        0.000000000000000
        0.000000000000000
        0.000000000000000
       -0.000270790701957
       -0.000263795975059
        0.000000000000000
        0.000000000000000
        0.000000000000000
        0.000000000000000
        0.000000000000000
        0.000000000000000
       -0.000160871407536
       -0.000315736311465
       -0.000263427625668
        0.000000000000000
        0.000000000000000
        0.000000000000000
        0.000000000000000
        0.000000000000000
        0.000000000000000
       -0.000098546455807
       -0.000152806910933
        0.000000000000000
        0.000000000000000
        0.000000000000000
        0.000000000000000
        0.000000000000000
        0.000000000000000
        0.000000000000000
        0.000000000000000
        0.000000000000000
        0.000000000000000
        0.000000000000000
        0.000000000000000
        0.000000000000000
        0.000000000000000
        0.000000000000000
        0.000000000000000
        0.000000000000000
        0.000000000000000
        0.000000000000000
        0.000000000000000
        0.000000000000000
        0.000000000000000
        0.000000000000000
        0.000000000000000
        0.000000000000000
        0.000000000000000
        0.000000000000000
        0.000000000000000
        0.000000000000000
        0.000000000000000
        0.000000000000000
        0.000000000000000
        0.000000000000000
        0.000000000000000
        0.000000000000000
        0.000000000000000
        0.000000000000000
        0.000000000000000
        0.000000000000000
        0.000000000000000
        0.000000000000000
        0.000000000000000
        0.000000000000000
        0.000000000000000
       -0.000283688984667
       -0.000286954897891
        0.000000000000000
        0.000000000000000
        0.000000000000000
        0.000000000000000
        0.000000000000000
        0.000000000000000
       -0.000480433642605
       -0.000958388387400
       -0.000964786038234
       -0.000491312995306
        0.000000000000000
        0.000000000000000
        0.000000000000000
        0.000000000000000
       -0.000255548661303
       -0.000946881206945
       -0.001820574592699
       -0.001789171135494
       -0.000937462671693
       -0.000272186204442
        0.000000000000000
        0.000000000000000
       -0.000024139058636
       -0.000248584989878
       -0.000952697918364
       -0.001832162571042
       -0.001737557355141
       -0.000888524505199
       -0.000259245203659
        0.000000000000000
        0.000000000000000
        0.000005489788504
       -0.000067099492716
       -0.000404078155246
       -0.000864209765255
       -0.000827379258379
       -0.000414026390122
        0.000000000000000
        0.000000000000000
        0.000000000000000
        0.000000000000000
        0.000023710871446
       -0.000034141761853
       -0.000169802227063
       -0.000184878980551
        0.000000000000000
        0.000000000000000
        0.000000000000000
        0.000000000000000
        0.000000000000000
        0.000000000000000
        0.000023897905995
        0.000005197559254
        0.000000000000000
        0.000000000000000
        0.000000000000000
        0.000000000000000
        0.000000000000000
        0.000000000000000
        0.000000000000000
        0.000000000000000
        0.000000000000000
        0.000000000000000
        0.000000000000000
        0.000000000000000
        0.000000000000000
        0.000000000000000
        0.000000000000000
        0.000000000000000
        0.000000000000000
        0.000000000000000
        0.000000000000000
        0.000000000000000
        0.000000000000000
        0.000000000000000
        0.000000000000000
        0.000000000000000
        0.000000000000000
       -0.000465336248738
       -0.000936628290171
       -0.000948503848153
       -0.000484402768591
        0.000000000000000
        0.000000000000000
        0.000000000000000
        0.000000000000000
       -0.000409363851032
       -0.001685347826383
       -0.003523769571424
       -0.003608630128410
       -0.001772622707930
       -0.000470752876508
        0.000000000000000
        0.000000000000000
       -0.000055076852897
       -0.000706823006049
       -0.003333333295911
       -0.008085885521410
       -0.008189244760297
       -0.003478732015767
       -0.000887046856348
        0.000000000000000
        0.000000000000000
        0.000037460192319
       -0.000402047365699
       -0.003068556574757
       -0.008389547285409
       -0.007521625532813
       -0.003158859093498
       -0.000818032621635
        0.000000000000000
        0.000000000000000
        0.000144567000833
        0.000273860378609
       -0.000310017530894
       -0.002472997672168
       -0.002647324901785
       -0.001321183819615
       -0.000363322667782
        0.000000000000000
        0.000000000000000
        0.000112536670448
        0.000327804071130
        0.000428168911413
        0.000001622151058
       -0.000324437506895
       -0.000230830520023
        0.000000000000000
        0.000000000000000
        0.000000000000000
        0.000000000000000
        0.000129833110141
        0.000219487923464
        0.000174045330005
        0.000057094675804
        0.000000000000000
        0.000000000000000
        0.000000000000000
        0.000000000000000
        0.000000000000000
        0.000000000000000
        0.000000000000000
        0.000000000000000
        0.000000000000000
        0.000000000000000
        0.000000000000000
        0.000000000000000
        0.000000000000000
        0.000000000000000
        0.000000000000000
        0.000000000000000
       -0.000251857314406
       -0.000248779396231
        0.000000000000000
        0.000000000000000
        0.000000000000000
        0.000000000000000
        0.000000000000000
       -0.000222628068951
       -0.000868730923423
       -0.001715075221122
       -0.001714127655283
       -0.000907135820917
       -0.000264499321610
        0.000000000000000
        0.000000000000000
       -0.000037274999315
       -0.000628561073553
       -0.003127109289979
       -0.007785582430307
       -0.008001933549974
       -0.003415293736539
       -0.000873019623841
        0.000000000000000
        0.000000000000000
        0.000094893830120
       -0.000576366593982
       -0.006292851626848
       -0.022824586607184
       -0.024321823156294
       -0.007595844715249
       -0.001551951354023
       -0.000216419449976
        0.000088110057926
        0.000439059116372
        0.000904873246234
       -0.003275135658521
       -0.022254985403571
       -0.020064045053733
       -0.006523348182326
       -0.001390214155820
       -0.000201775402676
        0.000096950624139
        0.000575005208032
        0.002139355181891
        0.004563176144276
       -0.000396715944563
       -0.003498074449771
       -0.001938744837004
       -0.000561514295122
        0.000000000000000
        0.000000000000000
        0.000356926133059
        0.001248026300010
        0.002607694976318
        0.002272112699439
        0.000658158559228
       -0.000048691132330
       -0.000069732327099
        0.000000000000000
        0.000000000000000
        0.000121860808852
        0.000398614368765
        0.000764883822961
        0.000802815366597
        0.000425260449644
        0.000121201309516
        0.000000000000000
        0.000000000000000
        0.000000000000000
        0.000000000000000
        0.000000000000000
        0.000135393608251
        0.000146327672511
        0.000000000000000
        0.000000000000000
        0.000000000000000
        0.000000000000000
        0.000000000000000
        0.000000000000000
        0.000000000000000
       -0.000133329082270
       -0.000278150550760
       -0.000240580452632
        0.000000000000000
        0.000000000000000
        0.000000000000000
        0.000000000000000
       -0.000003613113817
       -0.000170761100636
       -0.000778721226396
       -0.001614055678110
       -0.001592147330829
       -0.000832380484471
       -0.000246808957002
        0.000000000000000
        0.000000000000000
        0.000093426265148
       -0.000153321630831
       -0.002368760165704
       -0.007390810296315
       -0.006965512490020
       -0.002989507368837
       -0.000783720713981
        0.000000000000000
        0.000096667295929
        0.000507289275211
        0.001303617066201
       -0.001705107249287
       -0.019605525997100
       -0.018872417828311
       -0.006267884794194
       -0.001350502401640
       -0.000197915698018
        0.000180698137341
        0.001055970299655
        0.004871716476225
        0.013018126958542
        0.000007374878357
       -0.013200498057499
       -0.005011655201638
       -0.001102381479312
       -0.000191243358898
        0.000145749461148
        0.001040209156424
        0.004827594415377
        0.015288174157398
        0.019608686932072
        0.005098566921655
       -0.000039998731819
       -0.000264782323045
       -0.000058669084852
        0.000000000000000
        0.000556906550066
        0.002198472534658
        0.005593802664862
        0.007391440973531
        0.003694995920445
        0.000885307144834
        0.000104987554550
        0.000000000000000
        0.000000000000000
        0.000164138156385
        0.000613572756403
        0.001312339675388
        0.001614151450176
        0.001051004444521
        0.000376802792335
        0.000079276293916
        0.000000000000000
        0.000000000000000
        0.000000000000000
        0.000000000000000
        0.000195048452858
        0.000278159540663
        0.000177998660912
        0.000000000000000
        0.000000000000000
        0.000000000000000
        0.000000000000000
        0.000000000000000
        0.000000000000000
       -0.000070659401656
       -0.000121315437383
        0.000000000000000
        0.000000000000000
        0.000000000000000
        0.000000000000000
        0.000000000000000
        0.000028515440459
        0.000019871319702
       -0.000219983252628
       -0.000650100877520
       -0.000693816999406
       -0.000367310468594
        0.000000000000000
        0.000000000000000
        0.000000000000000
        0.000215087023347
        0.000582053275490
        0.000503318512828
       -0.001516291119750
       -0.002138822422882
       -0.001157850810580
       -0.000331809304923
        0.000000000000000
        0.000109753604429
        0.000683518661161
        0.002763532801657
        0.006874492392122
        0.002367759258650
       -0.002321683597173
       -0.001637309865452
       -0.000506462579276
        0.000000000000000
        0.000154306699151
        0.001108439315264
        0.005226338235343
        0.016858202566632
        0.022258146338543
        0.006290194147078
        0.000215464656313
       -0.000225070568865
       -0.000054809380194
        0.000000000000000
        0.000928391249552
        0.004052089963909
        0.012032113010923
        0.020856801618518
        0.012722960857068
        0.002551774122294
        0.000238253471354
       -0.000002365764856
        0.000000000000000
        0.000422021724609
        0.001801278056478
        0.004587294716808
        0.007030619022316
        0.004846905903846
        0.001532336997416
        0.000276023977920
        0.000000000000000
        0.000000000000000
        0.000000000000000
        0.000461864179752
        0.001133572468653
        0.001562505811062
        0.001161515586648
        0.000476579555203
        0.000107557473793
        0.000000000000000
        0.000000000000000
        0.000000000000000
        0.000000000000000
        0.000000000000000
        0.000226862558317
        0.000183134893241
        0.000000000000000
        0.000000000000000
        0.000000000000000
        0.000000000000000
        0.000000000000000
        0.000000000000000
        0.000000000000000
        0.000000000000000
        0.000000000000000
        0.000000000000000
        0.000000000000000
        0.000000000000000
        0.000000000000000
        0.000000000000000
        0.000071016934963
        0.000067094873780
       -0.000057255036217
       -0.000120170911702
        0.000000000000000
        0.000000000000000
        0.000000000000000
        0.000000000000000
        0.000152831806992
        0.000493855013802
        0.000800703681575
        0.000420929299945
       -0.000082286412633
       -0.000153207681853
        0.000000000000000
        0.000000000000000
        0.000000000000000
        0.000427446155574
        0.001556219196890
        0.003421031020040
        0.003228819251857
        0.001166661038131
        0.000114641876705
       -0.000038218964240
        0.000000000000000
        0.000000000000000
        0.000612872622895
        0.002447198269526
        0.006293599073915
        0.008390177962625
        0.004251108963238
        0.001054658869496
        0.000139299462203
        0.000000000000000
        0.000000000000000
        0.000439823578191
        0.001879539988975
        0.004793518722740
        0.007330922113419
        0.005034217114168
        0.001595775276643
        0.000290051210428
        0.000000000000000
        0.000000000000000
        0.000000000000000
        0.000782676361184
        0.002086472221497
        0.003101514915376
        0.002362344381870
        0.000927233623312
        0.000193799329662
        0.000000000000000
        0.000000000000000
        0.000000000000000
        0.000000000000000
        0.000527568465768
        0.000819897854284
        0.000657853183534
        0.000277774437030
        0.000000000000000
        0.000000000000000
        0.000000000000000
        0.000000000000000
        0.000000000000000
        0.000000000000000
        0.000000000000000
        0.000000000000000
        0.000000000000000
        0.000000000000000
        0.000000000000000
        0.000000000000000
        0.000000000000000
        0.000000000000000
        0.000000000000000
        0.000000000000000
        0.000000000000000
        0.000000000000000
        0.000000000000000
        0.000000000000000
        0.000000000000000
        0.000000000000000
        0.000000000000000
        0.000054733712214
        0.000038346949616
        0.000000000000000
        0.000000000000000
        0.000000000000000
        0.000000000000000
        0.000000000000000
        0.000000000000000
        0.000177139173657
        0.000320724559097
        0.000286592520851
        0.000121802744653
        0.000000000000000
        0.000000000000000
        0.000000000000000
        0.000000000000000
        0.000144886460807
        0.000485585181183
        0.000948978725579
        0.001016924254333
        0.000558822708617
        0.000167917231044
        0.000000000000000
        0.000000000000000
        0.000000000000000
        0.000184664101204
        0.000691396645645
        0.001486316367356
        0.001832258343107
        0.001196414468832
        0.000432946813064
        0.000091712540573
        0.000000000000000
        0.000000000000000
        0.000000000000000
        0.000494784772104
        0.001211722752175
        0.001668005182638
        0.001236559066859
        0.000506906405979
        0.000115244356625
        0.000000000000000
        0.000000000000000
        0.000000000000000
        0.000000000000000
        0.000542665859635
        0.000841657951514
        0.000674135373615
        0.000284684663745
        0.000000000000000
        0.000000000000000
        0.000000000000000
        0.000000000000000
        0.000000000000000
        0.000000000000000
        0.000240157833510
        0.000207217344796
        0.000000000000000
        0.000000000000000
        0.000000000000000
        0.000000000000000
        0.000000000000000
        0.000000000000000
        0.000000000000000
        0.000000000000000
        0.000000000000000
        0.000000000000000
        0.000000000000000
        0.000000000000000
        0.000000000000000
        0.000000000000000
        0.000000000000000
        0.000000000000000
        0.000000000000000
        0.000000000000000
        0.000000000000000
        0.000000000000000
        0.000000000000000
        0.000000000000000
        0.000000000000000
        0.000000000000000
        0.000000000000000
        0.000000000000000
        0.000000000000000
        0.000000000000000
        0.000000000000000
        0.000000000000000
        0.000000000000000
        0.000000000000000
        0.000000000000000
        0.000000000000000
        0.000000000000000
        0.000000000000000
        0.000000000000000
        0.000000000000000
        0.000000000000000
        0.000000000000000
        0.000000000000000
        0.000000000000000
        0.000163280662402
        0.000177819146062
        0.000000000000000
        0.000000000000000
        0.000000000000000
        0.000000000000000
        0.000000000000000
        0.000000000000000
        0.000000000000000
        0.000222590778124
        0.000315745301368
        0.000200845833949
        0.000000000000000
        0.000000000000000
        0.000000000000000
        0.000000000000000
        0.000000000000000
        0.000000000000000
        0.000000000000000
        0.000245795945868
        0.000198151472069
        0.000000000000000
        0.000000000000000
        0.000000000000000
        0.000000000000000
        0.000000000000000
        0.000000000000000
        0.000000000000000
        0.000000000000000
        0.000000000000000
        0.000000000000000
        0.000000000000000
        0.000000000000000
        0.000000000000000
        0.000000000000000
        0.000000000000000
        0.000000000000000
        0.000000000000000
        0.000000000000000
        0.000000000000000
        0.000000000000000
        0.000000000000000
        0.000000000000000
        0.000000000000000
        0.000000000000000
        0.000000000000000
        0.000000000000000
        0.000000000000000
        0.000000000000000
        0.000000000000000
        0.000000000000000
END_DATAGRID_3D
END_BLOCK_DATAGRID_3D
