ATOMS
         C    7.558905    7.558905    7.558905
         H    8.755769    8.755769    8.755769
         H    6.362040    6.362040    8.755769
         H    8.755769    6.362040    6.362040
         H    6.362040    8.755769    6.362040
BEGIN_BLOCK_DATAGRID_3D
units: coords = b, function = sqrt(b^-3)
BEGIN_DATAGRID_3D_function
      9      9      9
0.0 0.0 0.0
   15.117809    0.000000    0.000000
    0.000000   15.117809    0.000000
    0.000000    0.000000   15.117809
        0.000000000000000
        0.000000000000000
        0.000000000000000
        0.000000000000000
        0.000000000000000
        0.000000000000000
        0.000000000000000
        0.000000000000000
        0.000000000000000
        0.000000000000000
        0.000000000000000
        0.000000000000000
        0.000000000000000
        0.000000000000000
        0.000000000000000
        0.000000000000000
        0.000000000000000
        0.000000000000000
        0.000000000000000
        0.000000000000000
        0.000000000000000
        0.000000000000000
        0.000000000000000
        0.000000000000000
        0.000000000000000
        0.000000000000000
        0.000000000000000
        0.000000000000000
        0.000000000000000
        0.000000000000000
        0.000000000000000
        0.000085168587457
       -0.000010587460561
        0.000000000000000
        0.000000000000000
        0.000000000000000
        0.000000000000000
        0.000000000000000
        0.000000000000000
        0.000461050684983
        0.000451784703204
        0.000231074457898
        0.000000000000000
        0.000000000000000
        0.000000000000000
        0.000000000000000
        0.000000000000000
        0.000000000000000
        0.000552123932151
        0.000606956555425
        0.000000000000000
        0.000000000000000
        0.000000000000000
        0.000000000000000
        0.000000000000000
        0.000000000000000
        0.000000000000000
        0.000000000000000
        0.000000000000000
        0.000000000000000
        0.000000000000000
        0.000000000000000
        0.000000000000000
        0.000000000000000
        0.000000000000000
        0.000000000000000
        0.000000000000000
        0.000000000000000
        0.000000000000000
        0.000000000000000
        0.000000000000000
        0.000000000000000
        0.000000000000000
        0.000000000000000
        0.000000000000000
        0.000000000000000
        0.000000000000000
        0.000000000000000
        0.000000000000000
        0.000000000000000
        0.000000000000000
        0.000000000000000
        0.000000000000000
        0.000000000000000
        0.000000000000000
        0.000000000000000
        0.000000000000000
        0.000000000000000
        0.000000000000000
        0.000000000000000
        0.000000000000000
        0.000000000000000
        0.000000000000000
        0.000000000000000
       -0.000401294222605
       -0.000392316833760
        0.000000000000000
        0.000000000000000
        0.000000000000000
        0.000000000000000
        0.000000000000000
        0.000000000000000
       -0.000335640869833
       -0.000811050019788
       -0.000941163700436
       -0.000486449881471
        0.000000000000000
        0.000000000000000
        0.000000000000000
        0.000000000000000
        0.000485335991708
        0.000814933389890
        0.000449886580636
       -0.000332131857809
       -0.000496269350521
       -0.000153938158260
        0.000000000000000
        0.000000000000000
        0.000477580883527
        0.001776995304658
        0.003643348931969
        0.003815314006800
        0.001817941008988
        0.000409946867877
        0.000002595330335
        0.000000000000000
        0.000000000000000
        0.000609508331660
        0.002233410033670
        0.004666727975014
        0.005011403360321
        0.002876526282249
        0.000725226819919
        0.000000000000000
        0.000000000000000
        0.000000000000000
        0.000000000000000
        0.001331578353962
        0.002678304383585
        0.002997992192324
        0.001546203681461
        0.000000000000000
        0.000000000000000
        0.000000000000000
        0.000000000000000
        0.000000000000000
        0.000000000000000
        0.000847887007159
        0.000881470436468
        0.000000000000000
        0.000000000000000
        0.000000000000000
        0.000000000000000
        0.000000000000000
        0.000000000000000
        0.000000000000000
        0.000000000000000
        0.000000000000000
        0.000000000000000
        0.000000000000000
        0.000000000000000
        0.000000000000000
        0.000000000000000
        0.000000000000000
        0.000000000000000
        0.000000000000000
        0.000000000000000
        0.000000000000000
        0.000000000000000
        0.000000000000000
        0.000000000000000
        0.000000000000000
        0.000000000000000
        0.000000000000000
       -0.001201603023750
       -0.002183565882680
       -0.001703195660057
       -0.000842697891221
        0.000000000000000
        0.000000000000000
        0.000000000000000
        0.000000000000000
       -0.000804294358835
       -0.003160638575392
       -0.005706220279411
       -0.005325164239012
       -0.002414170699734
       -0.000604151096051
        0.000000000000000
        0.000000000000000
        0.000292017180500
        0.000760570002790
        0.000158525335942
       -0.003789348122384
       -0.005952042469839
       -0.002706522152006
       -0.000748038019375
        0.000000000000000
        0.000000000000000
        0.001470592612833
        0.006008380839115
        0.015792754994953
        0.019115958970639
        0.007241703853243
        0.000895585832905
       -0.000043520322597
        0.000000000000000
        0.000000000000000
        0.002063292769457
        0.008835594761766
        0.023313510423517
        0.026823806970580
        0.012550746248482
        0.003313085658263
        0.000439120527373
        0.000000000000000
        0.000000000000000
        0.001252048964105
        0.005087609648216
        0.011454236848772
        0.012610186951432
        0.007234294236445
        0.001937930963389
        0.000000000000000
        0.000000000000000
        0.000000000000000
        0.000000000000000
        0.001490595759275
        0.003018450410139
        0.003610638172916
        0.001932740731622
        0.000000000000000
        0.000000000000000
        0.000000000000000
        0.000000000000000
        0.000000000000000
        0.000000000000000
        0.000000000000000
        0.000000000000000
        0.000000000000000
        0.000000000000000
        0.000000000000000
        0.000000000000000
        0.000000000000000
        0.000000000000000
        0.000000000000000
        0.000000000000000
       -0.000814079048942
       -0.000626520555542
        0.000000000000000
        0.000000000000000
        0.000000000000000
        0.000000000000000
        0.000000000000000
       -0.001437553134047
       -0.004313368925841
       -0.006337407771900
       -0.004943730944206
       -0.001922710683546
       -0.000509935096527
        0.000000000000000
        0.000000000000000
       -0.000764909791339
       -0.004287600417878
       -0.013544282145186
       -0.024553412360800
       -0.018472953607122
       -0.006617226678892
       -0.001412447392779
        0.000000000000000
        0.000000000000000
       -0.000329917228247
       -0.002900511875430
       -0.016183386741933
       -0.045191470217275
       -0.037783372072930
       -0.010088841576582
       -0.001855763706330
       -0.000214086347278
        0.000260301168085
        0.002128142211190
        0.011157351246333
        0.041281335800970
        0.060074652930550
        0.014008670166942
        0.000381439336385
       -0.000424521452963
       -0.000066029065816
        0.000414622018046
        0.003637227033062
        0.020518321689969
        0.079624464136493
        0.100481476185186
        0.038993542494946
        0.008023458966728
        0.001182180223387
        0.000000000000000
        0.000000000000000
        0.002359863281382
        0.010581204757582
        0.028902433720508
        0.036092202943518
        0.018667229236483
        0.005566423052157
        0.000910897997188
        0.000000000000000
        0.000000000000000
        0.000768413666912
        0.002870126572149
        0.006725194270938
        0.008041028530128
        0.005165631920981
        0.001583541339896
        0.000000000000000
        0.000000000000000
        0.000000000000000
        0.000000000000000
        0.000000000000000
        0.000827056226309
        0.001008351151212
        0.000000000000000
        0.000000000000000
        0.000000000000000
        0.000000000000000
        0.000000000000000
        0.000000000000000
        0.000000000000000
       -0.000922108186577
       -0.001180288593035
       -0.000886070366844
        0.000000000000000
        0.000000000000000
        0.000000000000000
        0.000000000000000
       -0.000653884384331
       -0.002927374397103
       -0.007255214142975
       -0.009967516759955
       -0.007012418591957
       -0.002786017139991
       -0.000600577096658
        0.000000000000000
        0.000000000000000
       -0.001861261226036
       -0.009073016050998
       -0.030181341242643
       -0.049940487488811
       -0.029996236334644
       -0.008963613015678
       -0.001866968467573
        0.000000000000000
       -0.000223610067076
       -0.001983126511219
       -0.014052680752846
       -0.070043897945183
       -0.156945171188155
       -0.074401371870357
       -0.016092436613085
       -0.002467586701372
       -0.000283926254159
        0.000087437984346
        0.000738412265925
        0.003699684627187
        0.011626791534347
        0.000000000000001
       -0.011626791534348
       -0.003699684627188
       -0.000738412265926
       -0.000087437984346
        0.000357563312903
        0.003040099403356
        0.018510748141834
        0.080744673429726
        0.156945171188154
        0.063700596385811
        0.011634369224096
        0.001410613809234
        0.000149973008332
        0.000000000000000
        0.002284519946601
        0.010409203233776
        0.032414547863392
        0.049940487488810
        0.027763029713893
        0.007627425832899
        0.001443709747009
        0.000000000000000
        0.000000000000000
        0.000746817234809
        0.003203568619018
        0.007584931293941
        0.009967516759955
        0.006682701440991
        0.002509822918075
        0.000507644246180
        0.000000000000000
        0.000000000000000
        0.000000000000000
        0.000000000000000
        0.000959707425588
        0.001180288593035
        0.000848471127833
        0.000000000000000
        0.000000000000000
        0.000000000000000
        0.000000000000000
        0.000000000000000
        0.000000000000000
       -0.000788244742173
       -0.000994099504478
        0.000000000000000
        0.000000000000000
        0.000000000000000
        0.000000000000000
        0.000000000000000
       -0.000680243046243
       -0.002615573411244
       -0.006380411542855
       -0.007930224963032
       -0.005330578095341
       -0.001725045040669
        0.000000000000000
        0.000000000000000
        0.000000000000000
       -0.002023658715837
       -0.009394989839038
       -0.026883921999265
       -0.035624165216486
       -0.019658719573363
       -0.006354834517614
       -0.001145189179299
        0.000000000000000
       -0.000309813561297
       -0.002798313398411
       -0.017158199595530
       -0.071526578734561
       -0.099253799598266
       -0.043408198474947
       -0.010483199373990
       -0.001896621838472
        0.000000000000000
       -0.000126347922259
       -0.001071169319053
       -0.006699283857345
       -0.030580560316427
       -0.060074652930551
       -0.024709445651488
       -0.004839506725374
       -0.000632451439175
       -0.000067924180011
        0.000000000000000
        0.001044358843333
        0.005360252282692
        0.020598042721932
        0.043963793630351
        0.029685486670995
        0.006728719482143
        0.001016850071679
        0.000109277890529
        0.000000000000000
        0.000999200973451
        0.005076011883335
        0.014535772482064
        0.024085374633767
        0.016454441885877
        0.005431011760348
        0.001076242827234
        0.000000000000000
        0.000000000000000
        0.000000000000000
        0.001579056834820
        0.004478315100202
        0.006226604204804
        0.004598948216124
        0.001668157522641
        0.000421764475857
        0.000000000000000
        0.000000000000000
        0.000000000000000
        0.000000000000000
        0.000000000000000
        0.000799827402208
        0.000587709071405
        0.000000000000000
        0.000000000000000
        0.000000000000000
        0.000000000000000
        0.000000000000000
        0.000000000000000
        0.000000000000000
        0.000000000000000
        0.000000000000000
        0.000000000000000
        0.000000000000000
        0.000000000000000
        0.000000000000000
        0.000000000000000
       -0.001365202218406
       -0.002835088434734
       -0.003529825654413
       -0.001960995150967
        0.000000000000000
        0.000000000000000
        0.000000000000000
        0.000000000000000
       -0.001088483598513
       -0.004570194801563
       -0.010687052278918
       -0.012330408787264
       -0.007481796360100
       -0.002157333920109
        0.000000000000000
        0.000000000000000
        0.000000000000000
       -0.001727088203911
       -0.007649379843222
       -0.021294998702273
       -0.026355769243548
       -0.013542236585362
       -0.004101497123720
       -0.000673411709484
        0.000000000000000
        0.000000000000000
       -0.001047333892268
       -0.004672193656337
       -0.013559548374203
       -0.019115958970640
       -0.009474910473994
       -0.002231773015684
       -0.000379738397968
        0.000000000000000
        0.000000000000000
       -0.000057725998388
        0.000027841462667
        0.000832965000937
        0.003321310395351
        0.003933530748594
        0.001520307233462
        0.000411833453829
        0.000000000000000
        0.000000000000000
        0.000000000000000
        0.001023697315555
        0.003408140699047
        0.005426442115243
        0.004557979669158
        0.001896755853081
        0.000440585730459
        0.000000000000000
        0.000000000000000
        0.000000000000000
        0.000000000000000
        0.001229857443094
        0.002102753364177
        0.001519833684651
        0.000717304350352
        0.000000000000000
        0.000000000000000
        0.000000000000000
        0.000000000000000
        0.000000000000000
        0.000000000000000
        0.000000000000000
        0.000000000000000
        0.000000000000000
        0.000000000000000
        0.000000000000000
        0.000000000000000
        0.000000000000000
        0.000000000000000
        0.000000000000000
        0.000000000000000
        0.000000000000000
        0.000000000000000
        0.000000000000000
        0.000000000000000
        0.000000000000000
        0.000000000000000
        0.000000000000000
       -0.000797861309009
       -0.000853167258384
        0.000000000000000
        0.000000000000000
        0.000000000000000
        0.000000000000000
        0.000000000000000
        0.000000000000000
       -0.001206184813094
       -0.002494942408180
       -0.002917179673821
       -0.001574458100805
        0.000000000000000
        0.000000000000000
        0.000000000000000
        0.000000000000000
       -0.000521337710991
       -0.001978856872765
       -0.004321945246932
       -0.004900599793226
       -0.003041472456610
       -0.000866730520692
        0.000000000000000
        0.000000000000000
        0.000000000000000
       -0.000384648033049
       -0.001500801082743
       -0.003313631781004
       -0.003815314006800
       -0.002147658159953
       -0.000686141089793
       -0.000095528180814
        0.000000000000000
        0.000000000000000
        0.000000000000000
       -0.000343832290935
       -0.000649987215530
       -0.000560690147731
       -0.000012650870273
        0.000241716189616
        0.000065767537591
        0.000000000000000
        0.000000000000000
        0.000000000000000
        0.000000000000000
        0.000363895289178
        0.000730237501285
        0.000757801725031
        0.000361056340602
        0.000000000000000
        0.000000000000000
        0.000000000000000
        0.000000000000000
        0.000000000000000
        0.000000000000000
        0.000372991044521
        0.000342291135610
        0.000000000000000
        0.000000000000000
        0.000000000000000
        0.000000000000000
        0.000000000000000
        0.000000000000000
        0.000000000000000
        0.000000000000000
        0.000000000000000
        0.000000000000000
        0.000000000000000
        0.000000000000000
        0.000000000000000
        0.000000000000000
        0.000000000000000
        0.000000000000000
        0.000000000000000
        0.000000000000000
        0.000000000000000
        0.000000000000000
        0.000000000000000
        0.000000000000000
        0.000000000000000
        0.000000000000000
        0.000000000000000
        0.000000000000000
        0.000000000000000
        0.000000000000000
        0.000000000000000
        0.000000000000000
        0.000000000000000
        0.000000000000000
        0.000000000000000
        0.000000000000000
        0.000000000000000
        0.000000000000000
        0.000000000000000
        0.000000000000000
        0.000000000000000
        0.000000000000000
        0.000000000000000
        0.000000000000000
       -0.000513312448015
       -0.000592704908691
        0.000000000000000
        0.000000000000000
        0.000000000000000
        0.000000000000000
        0.000000000000000
        0.000000000000000
        0.000000000000000
       -0.000423451445972
       -0.000451784703204
       -0.000268673696909
        0.000000000000000
        0.000000000000000
        0.000000000000000
        0.000000000000000
        0.000000000000000
        0.000000000000000
        0.000000000000000
       -0.000099420234190
       -0.000028224023576
        0.000000000000000
        0.000000000000000
        0.000000000000000
        0.000000000000000
        0.000000000000000
        0.000000000000000
        0.000000000000000
        0.000000000000000
        0.000000000000000
        0.000000000000000
        0.000000000000000
        0.000000000000000
        0.000000000000000
        0.000000000000000
        0.000000000000000
        0.000000000000000
        0.000000000000000
        0.000000000000000
        0.000000000000000
        0.000000000000000
        0.000000000000000
        0.000000000000000
        0.000000000000000
        0.000000000000000
        0.000000000000000
        0.000000000000000
        0.000000000000000
        0.000000000000000
        0.000000000000000
        0.000000000000000
END_DATAGRID_3D
END_BLOCK_DATAGRID_3D
