ATOMS
         C    7.558905    7.558905    7.558905
         H    8.755769    8.755769    8.755769
         H    6.362040    6.362040    8.755769
         H    8.755769    6.362040    6.362040
         H    6.362040    8.755769    6.362040
BEGIN_BLOCK_DATAGRID_3D
units: coords = b, function = sqrt(b^-3)
BEGIN_DATAGRID_3D_function
      9      9      9
0.0 0.0 0.0
   15.117809    0.000000    0.000000
    0.000000   15.117809    0.000000
    0.000000    0.000000   15.117809
        0.000000000000000
        0.000000000000000
        0.000000000000000
        0.000000000000000
        0.000000000000000
        0.000000000000000
        0.000000000000000
        0.000000000000000
        0.000000000000000
        0.000000000000000
        0.000000000000000
        0.000000000000000
        0.000000000000000
        0.000000000000000
        0.000000000000000
        0.000000000000000
        0.000000000000000
        0.000000000000000
        0.000000000000000
        0.000000000000000
        0.000000000000000
        0.000000000000000
        0.000000000000000
        0.000000000000000
        0.000000000000000
        0.000000000000000
        0.000000000000000
        0.000000000000000
        0.000000000000000
        0.000000000000000
        0.000000000000000
        0.000158427567665
        0.000320427603322
        0.000000000000000
        0.000000000000000
        0.000000000000000
        0.000000000000000
        0.000000000000000
        0.000000000000000
       -0.000198236653210
        0.000089194387523
        0.000334880673627
        0.000000000000000
        0.000000000000000
        0.000000000000000
        0.000000000000000
        0.000000000000000
        0.000000000000000
       -0.000213513815489
       -0.000021783547248
        0.000000000000000
        0.000000000000000
        0.000000000000000
        0.000000000000000
        0.000000000000000
        0.000000000000000
        0.000000000000000
        0.000000000000000
        0.000000000000000
        0.000000000000000
        0.000000000000000
        0.000000000000000
        0.000000000000000
        0.000000000000000
        0.000000000000000
        0.000000000000000
        0.000000000000000
        0.000000000000000
        0.000000000000000
        0.000000000000000
        0.000000000000000
        0.000000000000000
        0.000000000000000
        0.000000000000000
        0.000000000000000
        0.000000000000000
        0.000000000000000
        0.000000000000000
        0.000000000000000
        0.000000000000000
        0.000000000000000
        0.000000000000000
        0.000000000000000
        0.000000000000000
        0.000000000000000
        0.000000000000000
        0.000000000000000
        0.000000000000000
        0.000000000000000
        0.000000000000000
        0.000000000000000
        0.000000000000000
        0.000000000000000
        0.000000000000000
        0.000220145602227
        0.000376129962024
        0.000000000000000
        0.000000000000000
        0.000000000000000
        0.000000000000000
        0.000000000000000
        0.000000000000000
       -0.000132486899790
        0.000705429088931
        0.001408592731418
        0.000945964069333
        0.000000000000000
        0.000000000000000
        0.000000000000000
        0.000000000000000
       -0.000911489343921
       -0.000882210241781
        0.001226959880739
        0.002799523168980
        0.001946631328699
        0.000664416221924
        0.000000000000000
        0.000000000000000
       -0.000613794899430
       -0.001750296191169
       -0.001803229024044
        0.000753245060382
        0.002881433770498
        0.002182057085782
        0.000708594530748
        0.000000000000000
        0.000000000000000
       -0.000574474481307
       -0.001603673282143
       -0.001943757927058
       -0.000148755134286
        0.001611003142886
        0.001150486830501
        0.000000000000000
        0.000000000000000
        0.000000000000000
        0.000000000000000
       -0.000779113098179
       -0.001065634684861
       -0.000273668194318
        0.000371484386371
        0.000000000000000
        0.000000000000000
        0.000000000000000
        0.000000000000000
        0.000000000000000
        0.000000000000000
       -0.000286188221407
       -0.000125345970909
        0.000000000000000
        0.000000000000000
        0.000000000000000
        0.000000000000000
        0.000000000000000
        0.000000000000000
        0.000000000000000
        0.000000000000000
        0.000000000000000
        0.000000000000000
        0.000000000000000
        0.000000000000000
        0.000000000000000
        0.000000000000000
        0.000000000000000
        0.000000000000000
        0.000000000000000
        0.000000000000000
        0.000000000000000
        0.000000000000000
        0.000000000000000
        0.000000000000000
        0.000000000000000
        0.000000000000000
        0.000000000000000
       -0.000211314156441
        0.000580490995861
        0.001339226086945
        0.000913535338852
        0.000000000000000
        0.000000000000000
        0.000000000000000
        0.000000000000000
       -0.001546267304542
       -0.001652052070187
        0.002247357067053
        0.005739955588346
        0.003823021075751
        0.001202024916397
        0.000000000000000
        0.000000000000000
       -0.001628569433926
       -0.005372779424931
       -0.006238769266000
        0.004893998743907
        0.015598449675288
        0.008906843447328
        0.002494358035179
        0.000000000000000
        0.000000000000000
       -0.002886839854244
       -0.008868306882612
       -0.013686922234764
        0.003774001731823
        0.018234540678506
        0.010231334613351
        0.003168582104426
        0.000000000000000
        0.000000000000000
       -0.002234691559005
       -0.007696800536103
       -0.012170831410110
       -0.000346380300165
        0.008747919502381
        0.006177028039572
        0.001772915578420
        0.000000000000000
        0.000000000000000
       -0.001074112543293
       -0.003295212701764
       -0.004529912677121
       -0.000884329336314
        0.002456300684828
        0.001770077499751
        0.000000000000000
        0.000000000000000
        0.000000000000000
        0.000000000000000
       -0.000785622965749
       -0.001079559610771
       -0.000298748745678
        0.000355660300935
        0.000000000000000
        0.000000000000000
        0.000000000000000
        0.000000000000000
        0.000000000000000
        0.000000000000000
        0.000000000000000
        0.000000000000000
        0.000000000000000
        0.000000000000000
        0.000000000000000
        0.000000000000000
        0.000000000000000
        0.000000000000000
        0.000000000000000
        0.000000000000000
        0.000076570382675
        0.000264360122846
        0.000000000000000
        0.000000000000000
        0.000000000000000
        0.000000000000000
        0.000000000000000
       -0.001086527102720
       -0.001349032031852
        0.000609122494345
        0.002379736111186
        0.001816784479680
        0.000632010346110
        0.000000000000000
        0.000000000000000
       -0.001724779936075
       -0.005832306926875
       -0.007486115604713
        0.003003876625483
        0.014458689616195
        0.008550857786717
        0.002433877830632
        0.000000000000000
        0.000000000000000
       -0.005128820176764
       -0.017585697509292
       -0.031112790386886
        0.010686482598162
        0.059832814541096
        0.024598121319981
        0.006114208264936
        0.000763142638127
       -0.000942879560674
       -0.007423605876773
       -0.030881088268032
       -0.071365193148886
        0.011860343734089
        0.082280919563443
        0.033159154239465
        0.007759946193353
        0.000981234071245
       -0.000723551531558
       -0.005762499742722
       -0.022539062913840
       -0.051572263545367
        0.000229243816394
        0.035616125398603
        0.018597104325152
        0.005297079693567
        0.000000000000000
        0.000000000000000
       -0.002246832586926
       -0.007768262461164
       -0.012399631210054
       -0.000725810654050
        0.008497522420573
        0.006084780728680
        0.001753601913698
        0.000000000000000
        0.000000000000000
       -0.000580979760944
       -0.001629739235974
       -0.002028027588972
       -0.000272782177765
        0.001517291548655
        0.001115349080344
        0.000000000000000
        0.000000000000000
        0.000000000000000
        0.000000000000000
        0.000000000000000
       -0.000224769016277
       -0.000038215872104
        0.000000000000000
        0.000000000000000
        0.000000000000000
        0.000000000000000
        0.000000000000000
        0.000000000000000
        0.000000000000000
       -0.000324143563650
       -0.000059370835580
        0.000233188629214
        0.000000000000000
        0.000000000000000
        0.000000000000000
        0.000000000000000
       -0.000716790512642
       -0.002178528021144
       -0.002795309133722
       -0.000501385679901
        0.002077619170247
        0.001891133199610
        0.000653688635043
        0.000000000000000
        0.000000000000000
       -0.003190133591149
       -0.010241144180331
       -0.017871876354317
       -0.002512104657276
        0.014844825948985
        0.009333866295026
        0.003002596311325
        0.000000000000000
       -0.000986929286124
       -0.007797848600056
       -0.033175920269162
       -0.081498964853032
       -0.007894650519123
        0.074233083936142
        0.031659561628369
        0.007573968979497
        0.000961399211822
       -0.001262281841397
       -0.010659948324637
       -0.053409793909422
       -0.167847966043912
       -0.000000000000000
        0.167847966043913
        0.053409793909423
        0.010659948324637
        0.001262281841397
       -0.000946861286329
       -0.007460939655041
       -0.031182122232751
       -0.072980746498751
        0.007894650519124
        0.080246627415643
        0.032698480873545
        0.007684819275600
        0.000972391360632
        0.000000000000000
       -0.002920160478135
       -0.009048468110452
       -0.014367386553367
        0.002512104657277
        0.017394436958700
        0.009955745995757
        0.003107697757958
        0.000000000000000
        0.000000000000000
       -0.000624816919243
       -0.001808697366420
       -0.001964589845791
        0.000501385679901
        0.002682279809266
        0.002096092187954
        0.000687918796842
        0.000000000000000
        0.000000000000000
        0.000000000000000
        0.000000000000000
       -0.000218650703722
        0.000059370835580
        0.000309605638158
        0.000000000000000
        0.000000000000000
        0.000000000000000
        0.000000000000000
        0.000000000000000
        0.000000000000000
       -0.000335525597435
       -0.000167525317111
        0.000000000000000
        0.000000000000000
        0.000000000000000
        0.000000000000000
        0.000000000000000
       -0.000691878645475
       -0.002045069087698
       -0.002949362731026
       -0.001326812457820
        0.000863922545649
        0.000927442199803
        0.000000000000000
        0.000000000000000
        0.000000000000000
       -0.002606720720087
       -0.009356303742706
       -0.016740229588663
       -0.006030927030815
        0.005815939372024
        0.005296971536482
        0.001628698204372
        0.000000000000000
       -0.000789495833029
       -0.006348317488895
       -0.025968701033301
       -0.065331319868495
       -0.017952363515051
        0.028115216548799
        0.016912470533508
        0.005016820886402
        0.000000000000000
       -0.000990911011780
       -0.007835182378324
       -0.033476954233880
       -0.083114518202897
       -0.011860343734088
        0.072198791788343
        0.031198888262448
        0.007498842061744
        0.000952556501209
        0.000000000000000
       -0.005185080403204
       -0.017923877349367
       -0.032618551560515
        0.007036637100497
        0.057070768872767
        0.023909642627161
        0.005996608966682
        0.000749904726460
        0.000000000000000
       -0.001657520181996
       -0.005549445338287
       -0.006827346187883
        0.003752861059383
        0.014681171182523
        0.008573708417154
        0.002419675476381
        0.000000000000000
        0.000000000000000
        0.000000000000000
       -0.000956264177426
       -0.001032182062452
        0.000990472141239
        0.002597654208812
        0.001858023843991
        0.000640848060310
        0.000000000000000
        0.000000000000000
        0.000000000000000
        0.000000000000000
        0.000000000000000
        0.000129170806540
        0.000295934490866
        0.000000000000000
        0.000000000000000
        0.000000000000000
        0.000000000000000
        0.000000000000000
        0.000000000000000
        0.000000000000000
        0.000000000000000
        0.000000000000000
        0.000000000000000
        0.000000000000000
        0.000000000000000
        0.000000000000000
        0.000000000000000
       -0.001024597053046
       -0.001567510694963
       -0.000867885817395
        0.000052229253524
        0.000000000000000
        0.000000000000000
        0.000000000000000
        0.000000000000000
       -0.001287167767680
       -0.004174348385238
       -0.006545401544336
       -0.003154634952358
        0.001116716679795
        0.001397291582302
        0.000000000000000
        0.000000000000000
        0.000000000000000
       -0.002618861748008
       -0.009427765667768
       -0.016969029388608
       -0.006410357384700
        0.005565542290216
        0.005204724225590
        0.001609384539651
        0.000000000000000
        0.000000000000000
       -0.003223454215040
       -0.010421305408171
       -0.018552340672921
       -0.003774001731822
        0.014004722229180
        0.009058277677432
        0.002941711964857
        0.000000000000000
        0.000000000000000
       -0.001753730684145
       -0.006008972840231
       -0.008074692526596
        0.001862738940959
        0.013541411123430
        0.008217722756542
        0.002359195271834
        0.000000000000000
        0.000000000000000
        0.000000000000000
       -0.001621101777512
       -0.001920965294436
        0.001791607221619
        0.005335358633110
        0.003646540011252
        0.001159255394577
        0.000000000000000
        0.000000000000000
        0.000000000000000
        0.000000000000000
       -0.000196575398017
        0.000586143567212
        0.001307844218788
        0.000896684679943
        0.000000000000000
        0.000000000000000
        0.000000000000000
        0.000000000000000
        0.000000000000000
        0.000000000000000
        0.000000000000000
        0.000000000000000
        0.000000000000000
        0.000000000000000
        0.000000000000000
        0.000000000000000
        0.000000000000000
        0.000000000000000
        0.000000000000000
        0.000000000000000
        0.000000000000000
        0.000000000000000
        0.000000000000000
        0.000000000000000
        0.000000000000000
        0.000000000000000
        0.000000000000000
       -0.000435998261390
       -0.000283247479826
        0.000000000000000
        0.000000000000000
        0.000000000000000
        0.000000000000000
        0.000000000000000
        0.000000000000000
       -0.001031106920616
       -0.001581435620873
       -0.000892966368755
        0.000036405168087
        0.000000000000000
        0.000000000000000
        0.000000000000000
        0.000000000000000
       -0.000698383925112
       -0.002071135041529
       -0.003033632392939
       -0.001450839501299
        0.000770210951418
        0.000892304449645
        0.000000000000000
        0.000000000000000
        0.000000000000000
       -0.000727812532455
       -0.002236929196395
       -0.002956669955469
       -0.000753245060382
        0.001878465209015
        0.001805168301782
        0.000633012901137
        0.000000000000000
        0.000000000000000
        0.000000000000000
       -0.001131301936226
       -0.001499003852523
        0.000372634754845
        0.002177867151017
        0.001728176994972
        0.000608442184495
        0.000000000000000
        0.000000000000000
        0.000000000000000
        0.000000000000000
       -0.000275402654668
        0.000461205474142
        0.001238477574316
        0.000864255949462
        0.000000000000000
        0.000000000000000
        0.000000000000000
        0.000000000000000
        0.000000000000000
        0.000000000000000
        0.000188447848509
        0.000346056520773
        0.000000000000000
        0.000000000000000
        0.000000000000000
        0.000000000000000
        0.000000000000000
        0.000000000000000
        0.000000000000000
        0.000000000000000
        0.000000000000000
        0.000000000000000
        0.000000000000000
        0.000000000000000
        0.000000000000000
        0.000000000000000
        0.000000000000000
        0.000000000000000
        0.000000000000000
        0.000000000000000
        0.000000000000000
        0.000000000000000
        0.000000000000000
        0.000000000000000
        0.000000000000000
        0.000000000000000
        0.000000000000000
        0.000000000000000
        0.000000000000000
        0.000000000000000
        0.000000000000000
        0.000000000000000
        0.000000000000000
        0.000000000000000
        0.000000000000000
        0.000000000000000
        0.000000000000000
        0.000000000000000
        0.000000000000000
        0.000000000000000
        0.000000000000000
        0.000000000000000
        0.000000000000000
        0.000000000000000
       -0.000346780798224
       -0.000183957641968
        0.000000000000000
        0.000000000000000
        0.000000000000000
        0.000000000000000
        0.000000000000000
        0.000000000000000
        0.000000000000000
       -0.000344557614162
       -0.000089194387523
        0.000207913593745
        0.000000000000000
        0.000000000000000
        0.000000000000000
        0.000000000000000
        0.000000000000000
        0.000000000000000
        0.000000000000000
        0.000047313621551
        0.000239867010390
        0.000000000000000
        0.000000000000000
        0.000000000000000
        0.000000000000000
        0.000000000000000
        0.000000000000000
        0.000000000000000
        0.000000000000000
        0.000000000000000
        0.000000000000000
        0.000000000000000
        0.000000000000000
        0.000000000000000
        0.000000000000000
        0.000000000000000
        0.000000000000000
        0.000000000000000
        0.000000000000000
        0.000000000000000
        0.000000000000000
        0.000000000000000
        0.000000000000000
        0.000000000000000
        0.000000000000000
        0.000000000000000
        0.000000000000000
        0.000000000000000
        0.000000000000000
        0.000000000000000
        0.000000000000000
END_DATAGRID_3D
END_BLOCK_DATAGRID_3D
