ATOMS
         C    7.558905    7.558905    7.558905
         H    8.755769    8.755769    8.755769
         H    6.362040    6.362040    8.755769
         H    8.755769    6.362040    6.362040
         H    6.362040    8.755769    6.362040
BEGIN_BLOCK_DATAGRID_3D
units: coords = b, function = sqrt(b^-3)
BEGIN_DATAGRID_3D_function
      9      9      9
0.0 0.0 0.0
   15.117809    0.000000    0.000000
    0.000000   15.117809    0.000000
    0.000000    0.000000   15.117809
        0.000000000000000
        0.000000000000000
        0.000000000000000
        0.000000000000000
        0.000000000000000
        0.000000000000000
        0.000000000000000
        0.000000000000000
        0.000000000000000
        0.000000000000000
        0.000000000000000
        0.000000000000000
        0.000000000000000
        0.000000000000000
        0.000000000000000
        0.000000000000000
        0.000000000000000
        0.000000000000000
        0.000000000000000
        0.000000000000000
        0.000000000000000
        0.000000000000000
        0.000000000000000
        0.000000000000000
        0.000000000000000
        0.000000000000000
        0.000000000000000
        0.000000000000000
        0.000000000000000
        0.000000000000000
        0.000000000000000
        0.000997053325786
        0.000794834517153
        0.000000000000000
        0.000000000000000
        0.000000000000000
        0.000000000000000
        0.000000000000000
        0.000000000000000
        0.000880115226631
        0.001180157161225
        0.000927861975881
        0.000000000000000
        0.000000000000000
        0.000000000000000
        0.000000000000000
        0.000000000000000
        0.000000000000000
        0.000619773238444
        0.000810923876725
        0.000000000000000
        0.000000000000000
        0.000000000000000
        0.000000000000000
        0.000000000000000
        0.000000000000000
        0.000000000000000
        0.000000000000000
        0.000000000000000
        0.000000000000000
        0.000000000000000
        0.000000000000000
        0.000000000000000
        0.000000000000000
        0.000000000000000
        0.000000000000000
        0.000000000000000
        0.000000000000000
        0.000000000000000
        0.000000000000000
        0.000000000000000
        0.000000000000000
        0.000000000000000
        0.000000000000000
        0.000000000000000
        0.000000000000000
        0.000000000000000
        0.000000000000000
        0.000000000000000
        0.000000000000000
        0.000000000000000
        0.000000000000000
        0.000000000000000
        0.000000000000000
        0.000000000000000
        0.000000000000000
        0.000000000000000
        0.000000000000000
        0.000000000000000
        0.000000000000000
        0.000000000000000
        0.000000000000000
        0.000000000000000
        0.000000000000000
        0.000859637364697
        0.000807380139930
        0.000000000000000
        0.000000000000000
        0.000000000000000
        0.000000000000000
        0.000000000000000
        0.000000000000000
        0.001960369096828
        0.003548462186892
        0.002868187985126
        0.001386624266055
        0.000000000000000
        0.000000000000000
        0.000000000000000
        0.000000000000000
        0.001704960620950
        0.005310259914897
        0.007954148818909
        0.006439021224075
        0.002657210588927
        0.000694336420054
        0.000000000000000
        0.000000000000000
        0.000586216563380
        0.002743313171389
        0.006960652667997
        0.009966406820588
        0.007305391285332
        0.002969442147242
        0.000668105226228
        0.000000000000000
        0.000000000000000
        0.000495709189648
        0.001880568142261
        0.004883860255672
        0.006311895134421
        0.004332613198240
        0.001457285380572
        0.000000000000000
        0.000000000000000
        0.000000000000000
        0.000000000000000
        0.000821029981407
        0.001669590746061
        0.002164293131739
        0.001201876904694
        0.000000000000000
        0.000000000000000
        0.000000000000000
        0.000000000000000
        0.000000000000000
        0.000000000000000
        0.000382665469771
        0.000394684424912
        0.000000000000000
        0.000000000000000
        0.000000000000000
        0.000000000000000
        0.000000000000000
        0.000000000000000
        0.000000000000000
        0.000000000000000
        0.000000000000000
        0.000000000000000
        0.000000000000000
        0.000000000000000
        0.000000000000000
        0.000000000000000
        0.000000000000000
        0.000000000000000
        0.000000000000000
        0.000000000000000
        0.000000000000000
        0.000000000000000
        0.000000000000000
        0.000000000000000
        0.000000000000000
        0.000000000000000
        0.000000000000000
        0.001576309318795
        0.002939742584927
        0.002530221915891
        0.001228625985263
        0.000000000000000
        0.000000000000000
        0.000000000000000
        0.000000000000000
        0.002130857048392
        0.007465556887313
        0.012404886124679
        0.010828850038258
        0.004658707570752
        0.001115502539829
        0.000000000000000
        0.000000000000000
        0.001111639389861
        0.006245656603309
        0.019537966084306
        0.035747032817550
        0.027228215065931
        0.009587039956379
        0.002077267923488
        0.000000000000000
        0.000000000000000
        0.001802922419003
        0.008760436984434
        0.029654979136156
        0.049934926333067
        0.030515897327504
        0.009274183601580
        0.001924892115144
        0.000000000000000
        0.000000000000000
        0.001358455555278
        0.006423393510678
        0.018123609795819
        0.024423843646111
        0.013661338292206
        0.004395593236859
        0.000798246880453
        0.000000000000000
        0.000000000000000
        0.000576943670289
        0.002324880181943
        0.005181583428799
        0.005629734461334
        0.003175692952856
        0.000830441436492
        0.000000000000000
        0.000000000000000
        0.000000000000000
        0.000000000000000
        0.000463820224855
        0.000905501562876
        0.000788071949220
        0.000333576951520
        0.000000000000000
        0.000000000000000
        0.000000000000000
        0.000000000000000
        0.000000000000000
        0.000000000000000
        0.000000000000000
        0.000000000000000
        0.000000000000000
        0.000000000000000
        0.000000000000000
        0.000000000000000
        0.000000000000000
        0.000000000000000
        0.000000000000000
        0.000000000000000
        0.000598231222453
        0.000521664232895
        0.000000000000000
        0.000000000000000
        0.000000000000000
        0.000000000000000
        0.000000000000000
        0.000852146941414
        0.003035824894661
        0.004943940173311
        0.004393747405249
        0.002024574694550
        0.000536449491078
        0.000000000000000
        0.000000000000000
        0.000642885488359
        0.004006760593286
        0.013460682942277
        0.026538036943533
        0.021675110544667
        0.007852617377105
        0.001782598098348
        0.000000000000000
        0.000000000000000
        0.001796560581039
        0.010149372636778
        0.042875451415373
        0.099702491569538
        0.072911862257331
        0.017699204521164
        0.002929374374840
        0.000326080055709
        0.000263988168112
        0.002310281029016
        0.015428306410779
        0.072800530473362
        0.156927694455667
        0.071628654544404
        0.014713454125833
        0.002139936571485
        0.000243491636083
        0.000197761513648
        0.001724184472092
        0.009544802538804
        0.036385916268882
        0.044726693448229
        0.016709497941444
        0.003232848260696
        0.000429730547963
        0.000000000000000
        0.000000000000000
        0.000692252505634
        0.002502131429863
        0.005568896515301
        0.003603723593079
       -0.000078462044803
       -0.000666205503487
       -0.000261533429813
        0.000000000000000
        0.000000000000000
        0.000138751182385
        0.000450275909431
        0.000259811441683
       -0.000493722572811
       -0.000809533765660
       -0.000470794882868
        0.000000000000000
        0.000000000000000
        0.000000000000000
        0.000000000000000
        0.000000000000000
        0.000002177336462
       -0.000090751418258
        0.000000000000000
        0.000000000000000
        0.000000000000000
        0.000000000000000
        0.000000000000000
        0.000000000000000
        0.000000000000000
        0.000266675381952
        0.000456322170224
        0.000432401069788
        0.000000000000000
        0.000000000000000
        0.000000000000000
        0.000000000000000
        0.000084404448774
        0.000656894988709
        0.002127069934027
        0.003853632837329
        0.003389070077814
        0.001552011579507
        0.000400594380195
        0.000000000000000
        0.000000000000000
        0.000325223838288
        0.002071740583732
        0.009265172126200
        0.019307948723225
        0.014000631644948
        0.004901565578673
        0.001116181149373
        0.000000000000000
        0.000049370426767
        0.000486906940643
        0.004247495274839
        0.023427074175464
        0.060678008366211
        0.032418232972082
        0.007407184317293
        0.001233824009564
        0.000146852833324
        0.000061928456920
        0.000522984747895
        0.002620322983958
        0.008234742189444
        0.000000000000001
       -0.008234742189448
       -0.002620322983959
       -0.000522984747895
       -0.000061928456920
        0.000045502732485
        0.000261700208824
       -0.001090043324055
       -0.015848188196299
       -0.060678008366214
       -0.039997118951252
       -0.010564636268079
       -0.001982431159032
       -0.000241725992575
        0.000000000000000
       -0.000025448407295
       -0.001125378301883
       -0.007683490651710
       -0.019307948723227
       -0.015582313119439
       -0.005847927860522
       -0.001415956580367
        0.000000000000000
        0.000000000000000
       -0.000018584221211
       -0.000461278837428
       -0.001893545859426
       -0.003853632837329
       -0.003622594152416
       -0.001747627730787
       -0.000466414607758
        0.000000000000000
        0.000000000000000
        0.000000000000000
        0.000000000000000
       -0.000240045503980
       -0.000456322170224
       -0.000459030947761
        0.000000000000000
        0.000000000000000
        0.000000000000000
        0.000000000000000
        0.000000000000000
        0.000000000000000
        0.000025311121116
        0.000100845229288
        0.000000000000000
        0.000000000000000
        0.000000000000000
        0.000000000000000
        0.000000000000000
       -0.000076303831562
       -0.000269987164477
       -0.000015617085162
        0.000572199838530
        0.000692709685948
        0.000370574070335
        0.000000000000000
        0.000000000000000
        0.000000000000000
       -0.000454133682225
       -0.001661987869481
       -0.004139273942151
       -0.003272233172385
       -0.000623766707077
        0.000107808534034
        0.000095595348249
        0.000000000000000
       -0.000123530319423
       -0.001130019049916
       -0.007164976677902
       -0.030650542209101
       -0.043857184421992
       -0.019836203511336
       -0.004974973596558
       -0.000935737944093
        0.000000000000000
       -0.000169115008860
       -0.001561673879549
       -0.012270854459995
       -0.065221644494198
       -0.156927694455670
       -0.079207540523575
       -0.017870906076619
       -0.002888543720952
       -0.000338364795334
        0.000000000000000
       -0.001290553184909
       -0.008407247300917
       -0.039748745845484
       -0.100572000595780
       -0.078647236317116
       -0.020079030382068
       -0.003523539797016
       -0.000400311249935
        0.000000000000000
       -0.000476947406796
       -0.003448363623833
       -0.012758454190398
       -0.026869527364228
       -0.023104733117819
       -0.008692760937487
       -0.002020716921757
        0.000000000000000
        0.000000000000000
        0.000000000000000
       -0.000751926128882
       -0.002919000814950
       -0.005022417439031
       -0.004637941761770
       -0.002204863439504
       -0.000598896841902
        0.000000000000000
        0.000000000000000
        0.000000000000000
        0.000000000000000
        0.000000000000000
       -0.000608325033482
       -0.000549152690473
        0.000000000000000
        0.000000000000000
        0.000000000000000
        0.000000000000000
        0.000000000000000
        0.000000000000000
        0.000000000000000
        0.000000000000000
        0.000000000000000
        0.000000000000000
        0.000000000000000
        0.000000000000000
        0.000000000000000
        0.000000000000000
       -0.000375009526028
       -0.000775634385818
       -0.000730836016711
       -0.000353588307045
        0.000000000000000
        0.000000000000000
        0.000000000000000
        0.000000000000000
       -0.000461097556355
       -0.001958418131377
       -0.004638220530633
       -0.005431579962275
       -0.003350987759993
       -0.000985834846518
        0.000000000000000
        0.000000000000000
        0.000000000000000
       -0.001120336731869
       -0.005583249950296
       -0.016693987222669
       -0.024092353225417
       -0.014363567044086
       -0.004953990206312
       -0.000964184962017
        0.000000000000000
        0.000000000000000
       -0.001503146988009
       -0.007814074702586
       -0.028073297661666
       -0.049934926333069
       -0.032097578801996
       -0.010220545883429
       -0.002224667546138
        0.000000000000000
        0.000000000000000
       -0.000945701308298
       -0.005687259633857
       -0.018835737332427
       -0.036078523238245
       -0.028657837639083
       -0.010427183516761
       -0.002315386746897
        0.000000000000000
        0.000000000000000
        0.000000000000000
       -0.001975463638366
       -0.007290262080176
       -0.012603040623739
       -0.011372212936423
       -0.005025169621319
       -0.001231348653763
        0.000000000000000
        0.000000000000000
        0.000000000000000
        0.000000000000000
       -0.001556297963270
       -0.002996978517435
       -0.002660089092949
       -0.001317436684090
        0.000000000000000
        0.000000000000000
        0.000000000000000
        0.000000000000000
        0.000000000000000
        0.000000000000000
        0.000000000000000
        0.000000000000000
        0.000000000000000
        0.000000000000000
        0.000000000000000
        0.000000000000000
        0.000000000000000
        0.000000000000000
        0.000000000000000
        0.000000000000000
        0.000000000000000
        0.000000000000000
        0.000000000000000
        0.000000000000000
        0.000000000000000
        0.000000000000000
        0.000000000000000
       -0.000347234480414
       -0.000374638535728
        0.000000000000000
        0.000000000000000
        0.000000000000000
        0.000000000000000
        0.000000000000000
        0.000000000000000
       -0.000732219282581
       -0.001539723569003
       -0.002107057199230
       -0.001221888260220
        0.000000000000000
        0.000000000000000
        0.000000000000000
        0.000000000000000
       -0.000433261838824
       -0.001700279397308
       -0.004639665899151
       -0.006233417868702
       -0.004449437277951
       -0.001557506193105
        0.000000000000000
        0.000000000000000
        0.000000000000000
       -0.000520396335817
       -0.002547697020108
       -0.006727128593397
       -0.009966406820588
       -0.007538915359934
       -0.003165058298523
       -0.000733925453791
        0.000000000000000
        0.000000000000000
        0.000000000000000
       -0.001604739808417
       -0.005193435835186
       -0.008032626084629
       -0.006683215580596
       -0.002837499333880
       -0.000756783770877
        0.000000000000000
        0.000000000000000
        0.000000000000000
        0.000000000000000
       -0.001940357741303
       -0.003605698119401
       -0.002998055162185
       -0.001475434964881
        0.000000000000000
        0.000000000000000
        0.000000000000000
        0.000000000000000
        0.000000000000000
        0.000000000000000
       -0.000879683253881
       -0.000842811129287
        0.000000000000000
        0.000000000000000
        0.000000000000000
        0.000000000000000
        0.000000000000000
        0.000000000000000
        0.000000000000000
        0.000000000000000
        0.000000000000000
        0.000000000000000
        0.000000000000000
        0.000000000000000
        0.000000000000000
        0.000000000000000
        0.000000000000000
        0.000000000000000
        0.000000000000000
        0.000000000000000
        0.000000000000000
        0.000000000000000
        0.000000000000000
        0.000000000000000
        0.000000000000000
        0.000000000000000
        0.000000000000000
        0.000000000000000
        0.000000000000000
        0.000000000000000
        0.000000000000000
        0.000000000000000
        0.000000000000000
        0.000000000000000
        0.000000000000000
        0.000000000000000
        0.000000000000000
        0.000000000000000
        0.000000000000000
        0.000000000000000
        0.000000000000000
        0.000000000000000
        0.000000000000000
        0.000000000000000
       -0.000592284780866
       -0.000800830065696
        0.000000000000000
        0.000000000000000
        0.000000000000000
        0.000000000000000
        0.000000000000000
        0.000000000000000
        0.000000000000000
       -0.000853485348658
       -0.001180157161225
       -0.000954491853853
        0.000000000000000
        0.000000000000000
        0.000000000000000
        0.000000000000000
        0.000000000000000
        0.000000000000000
        0.000000000000000
       -0.001007147136816
       -0.000822322974730
        0.000000000000000
        0.000000000000000
        0.000000000000000
        0.000000000000000
        0.000000000000000
        0.000000000000000
        0.000000000000000
        0.000000000000000
        0.000000000000000
        0.000000000000000
        0.000000000000000
        0.000000000000000
        0.000000000000000
        0.000000000000000
        0.000000000000000
        0.000000000000000
        0.000000000000000
        0.000000000000000
        0.000000000000000
        0.000000000000000
        0.000000000000000
        0.000000000000000
        0.000000000000000
        0.000000000000000
        0.000000000000000
        0.000000000000000
        0.000000000000000
        0.000000000000000
        0.000000000000000
        0.000000000000000
END_DATAGRID_3D
END_BLOCK_DATAGRID_3D
