ATOMS
         C    7.558905    7.558905    7.558905
         H    8.755769    8.755769    8.755769
         H    6.362040    6.362040    8.755769
         H    8.755769    6.362040    6.362040
         H    6.362040    8.755769    6.362040
BEGIN_BLOCK_DATAGRID_3D
units: coords = b, function = 1/hbar/H*b^-2
BEGIN_DATAGRID_3D_function
      9      9      9
0.0 0.0 0.0
   15.117809    0.000000    0.000000
    0.000000   15.117809    0.000000
    0.000000    0.000000   15.117809
        0.000000000000000
        0.000000000000000
        0.000000000000000
        0.000000000000000
        0.000000000000000
        0.000000000000000
        0.000000000000000
        0.000000000000000
        0.000000000000000
        0.000000000000000
        0.000000000000000
        0.000000000000000
        0.000000000000000
        0.000000000000000
        0.000000000000000
        0.000000000000000
        0.000000000000000
        0.000000000000000
        0.000000000000000
        0.000000000000000
        0.000000000000000
        0.000000000000000
        0.000000000000000
        0.000000000000000
        0.000000000000000
        0.000000000000000
        0.000000000000000
        0.000000000000000
        0.000000000000000
        0.000000000000000
        0.000000000000000
       -0.000000000952389
       -0.000000000019743
        0.000000000000000
        0.000000000000000
        0.000000000000000
        0.000000000000000
        0.000000000000000
        0.000000000000000
       -0.000000000019809
       -0.000000002823867
       -0.000000000019743
        0.000000000000000
        0.000000000000000
        0.000000000000000
        0.000000000000000
        0.000000000000000
        0.000000000000000
       -0.000000000019809
       -0.000000000951174
        0.000000000000000
        0.000000000000000
        0.000000000000000
        0.000000000000000
        0.000000000000000
        0.000000000000000
        0.000000000000000
        0.000000000000000
        0.000000000000000
        0.000000000000000
        0.000000000000000
        0.000000000000000
        0.000000000000000
        0.000000000000000
        0.000000000000000
        0.000000000000000
        0.000000000000000
        0.000000000000000
        0.000000000000000
        0.000000000000000
        0.000000000000000
        0.000000000000000
        0.000000000000000
        0.000000000000000
        0.000000000000000
        0.000000000000000
        0.000000000000000
        0.000000000000000
        0.000000000000000
        0.000000000000000
        0.000000000000000
        0.000000000000000
        0.000000000000000
        0.000000000000000
        0.000000000000000
        0.000000000000000
        0.000000000000000
        0.000000000000000
        0.000000000000000
        0.000000000000000
        0.000000000000000
        0.000000000000000
        0.000000000000000
        0.000000000000000
       -0.000000001513088
        0.000000001384634
        0.000000000000000
        0.000000000000000
        0.000000000000000
        0.000000000000000
        0.000000000000000
        0.000000000000000
       -0.000000003120496
       -0.000000002684327
        0.000000001832440
        0.000000001922370
        0.000000000000000
        0.000000000000000
        0.000000000000000
        0.000000000000000
       -0.000000002125327
       -0.000000005470294
        0.000000001116698
       -0.000000000760025
        0.000000002646268
       -0.000000000009162
        0.000000000000000
        0.000000000000000
       -0.000000000009179
       -0.000000003816146
        0.000000001452688
       -0.000000000764339
        0.000000001463545
       -0.000000003815019
       -0.000000000009162
        0.000000000000000
        0.000000000000000
       -0.000000000009179
        0.000000002636792
       -0.000000000777750
        0.000000001091867
       -0.000000005473467
       -0.000000002130282
        0.000000000000000
        0.000000000000000
        0.000000000000000
        0.000000000000000
        0.000000001921571
        0.000000001828221
       -0.000000002685556
       -0.000000003123614
        0.000000000000000
        0.000000000000000
        0.000000000000000
        0.000000000000000
        0.000000000000000
        0.000000000000000
        0.000000001385574
       -0.000000001512972
        0.000000000000000
        0.000000000000000
        0.000000000000000
        0.000000000000000
        0.000000000000000
        0.000000000000000
        0.000000000000000
        0.000000000000000
        0.000000000000000
        0.000000000000000
        0.000000000000000
        0.000000000000000
        0.000000000000000
        0.000000000000000
        0.000000000000000
        0.000000000000000
        0.000000000000000
        0.000000000000000
        0.000000000000000
        0.000000000000000
        0.000000000000000
        0.000000000000000
        0.000000000000000
        0.000000000000000
        0.000000000000000
       -0.000000004486517
       -0.000000001303524
        0.000000000503073
        0.000000003266367
        0.000000000000000
        0.000000000000000
        0.000000000000000
        0.000000000000000
       -0.000000006428898
        0.000000002740803
        0.000000022823358
       -0.000000021351364
       -0.000000011629170
        0.000000001394604
        0.000000000000000
        0.000000000000000
       -0.000000001304627
       -0.000000001142389
        0.000000067347036
       -0.000000039077848
       -0.000000137386637
       -0.000000011708708
        0.000000001173892
        0.000000000000000
        0.000000000000000
       -0.000000003008184
        0.000000025433254
       -0.000000050400666
       -0.000000140024608
       -0.000000051265181
        0.000000025691690
       -0.000000003019190
        0.000000000000000
        0.000000000000000
        0.000000001153276
       -0.000000011632176
       -0.000000136678087
       -0.000000039855865
        0.000000067665071
       -0.000000001042345
       -0.000000001317120
        0.000000000000000
        0.000000000000000
        0.000000001386541
       -0.000000011516470
       -0.000000021603561
        0.000000022738758
        0.000000002860975
       -0.000000006454020
        0.000000000000000
        0.000000000000000
        0.000000000000000
        0.000000000000000
        0.000000003259607
        0.000000000496822
       -0.000000001302201
       -0.000000004497808
        0.000000000000000
        0.000000000000000
        0.000000000000000
        0.000000000000000
        0.000000000000000
        0.000000000000000
        0.000000000000000
        0.000000000000000
        0.000000000000000
        0.000000000000000
        0.000000000000000
        0.000000000000000
        0.000000000000000
        0.000000000000000
        0.000000000000000
        0.000000000000000
       -0.000000002549542
        0.000000001646249
        0.000000000000000
        0.000000000000000
        0.000000000000000
        0.000000000000000
        0.000000000000000
       -0.000000003554819
       -0.000000009945521
       -0.000000022361619
        0.000000017882627
        0.000000009115131
       -0.000000000179297
        0.000000000000000
        0.000000000000000
       -0.000000000674863
       -0.000000007407321
        0.000000264507675
        0.000000429958601
       -0.000000392693427
       -0.000000247997878
        0.000000011417926
        0.000000000000000
        0.000000000000000
       -0.000000015211841
        0.000000246157859
        0.000000725819341
       -0.000001277142126
       -0.000002332749842
       -0.000000219046747
        0.000000011242195
       -0.000000000099545
       -0.000000000099224
       -0.000000019662103
        0.000000378486695
       -0.000001189879170
       -0.000003072748272
       -0.000001201648211
        0.000000380778272
       -0.000000019682240
       -0.000000000099545
       -0.000000000099224
        0.000000011138686
       -0.000000217183681
       -0.000002320522415
       -0.000001287478843
        0.000000728418880
        0.000000248102654
       -0.000000015289096
        0.000000000000000
        0.000000000000000
        0.000000011354590
       -0.000000246309255
       -0.000000394017585
        0.000000429492057
        0.000000266082441
       -0.000000007307364
       -0.000000000693362
        0.000000000000000
        0.000000000000000
       -0.000000000181764
        0.000000009062573
        0.000000017887364
       -0.000000022352520
       -0.000000009972738
       -0.000000003572645
        0.000000000000000
        0.000000000000000
        0.000000000000000
        0.000000000000000
        0.000000000000000
        0.000000001650034
       -0.000000002542642
        0.000000000000000
        0.000000000000000
        0.000000000000000
        0.000000000000000
        0.000000000000000
        0.000000000000000
        0.000000000000000
       -0.000000001856465
       -0.000000000002071
        0.000000001854160
        0.000000000000000
        0.000000000000000
        0.000000000000000
        0.000000000000000
        0.000000000237057
       -0.000000006690106
       -0.000000039505772
       -0.000000000055938
        0.000000039584542
        0.000000006735919
       -0.000000000234248
        0.000000000000000
        0.000000000000000
       -0.000000009174195
        0.000000149202613
        0.000001024450651
        0.000000001075650
       -0.000001027695913
       -0.000000150608206
        0.000000009254336
        0.000000000000000
       -0.000000000587830
       -0.000000030455207
        0.000000840525316
        0.000002429763079
        0.000000023176755
       -0.000002449062538
       -0.000000846103601
        0.000000030539125
        0.000000000600396
        0.000000000000000
       -0.000000000000000
        0.000000000000000
       -0.000000000000000
       -0.000000000000000
       -0.000000000000000
        0.000000000000000
        0.000000000000000
        0.000000000000000
        0.000000000587830
        0.000000030455207
       -0.000000840525316
       -0.000002429763079
       -0.000000023176755
        0.000002449062538
        0.000000846103601
       -0.000000030539125
       -0.000000000600396
        0.000000000000000
        0.000000009174195
       -0.000000149202613
       -0.000001024450651
       -0.000000001075650
        0.000001027695913
        0.000000150608206
       -0.000000009254336
        0.000000000000000
        0.000000000000000
       -0.000000000237057
        0.000000006690106
        0.000000039505772
        0.000000000055938
       -0.000000039584542
       -0.000000006735919
        0.000000000234248
        0.000000000000000
        0.000000000000000
        0.000000000000000
        0.000000000000000
        0.000000001856465
        0.000000000002071
       -0.000000001854160
        0.000000000000000
        0.000000000000000
        0.000000000000000
        0.000000000000000
        0.000000000000000
        0.000000000000000
       -0.000000001650034
        0.000000002542642
        0.000000000000000
        0.000000000000000
        0.000000000000000
        0.000000000000000
        0.000000000000000
        0.000000000181764
       -0.000000009062573
       -0.000000017887364
        0.000000022352520
        0.000000009972738
        0.000000003572645
        0.000000000000000
        0.000000000000000
        0.000000000000000
       -0.000000011354590
        0.000000246309255
        0.000000394017585
       -0.000000429492057
       -0.000000266082441
        0.000000007307364
        0.000000000693362
        0.000000000000000
        0.000000000099224
       -0.000000011138686
        0.000000217183681
        0.000002320522415
        0.000001287478842
       -0.000000728418880
       -0.000000248102654
        0.000000015289096
        0.000000000000000
        0.000000000099224
        0.000000019662103
       -0.000000378486695
        0.000001189879170
        0.000003072748272
        0.000001201648211
       -0.000000380778272
        0.000000019682240
        0.000000000099545
        0.000000000000000
        0.000000015211841
       -0.000000246157859
       -0.000000725819341
        0.000001277142126
        0.000002332749842
        0.000000219046747
       -0.000000011242195
        0.000000000099545
        0.000000000000000
        0.000000000674863
        0.000000007407321
       -0.000000264507675
       -0.000000429958601
        0.000000392693427
        0.000000247997878
       -0.000000011417926
        0.000000000000000
        0.000000000000000
        0.000000000000000
        0.000000003554819
        0.000000009945521
        0.000000022361619
       -0.000000017882627
       -0.000000009115131
        0.000000000179297
        0.000000000000000
        0.000000000000000
        0.000000000000000
        0.000000000000000
        0.000000000000000
        0.000000002549542
       -0.000000001646249
        0.000000000000000
        0.000000000000000
        0.000000000000000
        0.000000000000000
        0.000000000000000
        0.000000000000000
        0.000000000000000
        0.000000000000000
        0.000000000000000
        0.000000000000000
        0.000000000000000
        0.000000000000000
        0.000000000000000
        0.000000000000000
       -0.000000003259607
       -0.000000000496822
        0.000000001302201
        0.000000004497808
        0.000000000000000
        0.000000000000000
        0.000000000000000
        0.000000000000000
       -0.000000001386541
        0.000000011516470
        0.000000021603561
       -0.000000022738758
       -0.000000002860975
        0.000000006454020
        0.000000000000000
        0.000000000000000
        0.000000000000000
       -0.000000001153276
        0.000000011632176
        0.000000136678087
        0.000000039855865
       -0.000000067665071
        0.000000001042345
        0.000000001317120
        0.000000000000000
        0.000000000000000
        0.000000003008184
       -0.000000025433254
        0.000000050400666
        0.000000140024608
        0.000000051265181
       -0.000000025691690
        0.000000003019190
        0.000000000000000
        0.000000000000000
        0.000000001304627
        0.000000001142389
       -0.000000067347036
        0.000000039077848
        0.000000137386637
        0.000000011708708
       -0.000000001173892
        0.000000000000000
        0.000000000000000
        0.000000000000000
        0.000000006428898
       -0.000000002740803
       -0.000000022823358
        0.000000021351364
        0.000000011629170
       -0.000000001394604
        0.000000000000000
        0.000000000000000
        0.000000000000000
        0.000000000000000
        0.000000004486517
        0.000000001303524
       -0.000000000503073
       -0.000000003266367
        0.000000000000000
        0.000000000000000
        0.000000000000000
        0.000000000000000
        0.000000000000000
        0.000000000000000
        0.000000000000000
        0.000000000000000
        0.000000000000000
        0.000000000000000
        0.000000000000000
        0.000000000000000
        0.000000000000000
        0.000000000000000
        0.000000000000000
        0.000000000000000
        0.000000000000000
        0.000000000000000
        0.000000000000000
        0.000000000000000
        0.000000000000000
        0.000000000000000
        0.000000000000000
       -0.000000001385574
        0.000000001512972
        0.000000000000000
        0.000000000000000
        0.000000000000000
        0.000000000000000
        0.000000000000000
        0.000000000000000
       -0.000000001921571
       -0.000000001828221
        0.000000002685556
        0.000000003123614
        0.000000000000000
        0.000000000000000
        0.000000000000000
        0.000000000000000
        0.000000000009179
       -0.000000002636792
        0.000000000777750
       -0.000000001091867
        0.000000005473467
        0.000000002130282
        0.000000000000000
        0.000000000000000
        0.000000000000000
        0.000000000009179
        0.000000003816146
       -0.000000001452688
        0.000000000764339
       -0.000000001463545
        0.000000003815019
        0.000000000009162
        0.000000000000000
        0.000000000000000
        0.000000000000000
        0.000000002125327
        0.000000005470294
       -0.000000001116698
        0.000000000760025
       -0.000000002646268
        0.000000000009162
        0.000000000000000
        0.000000000000000
        0.000000000000000
        0.000000000000000
        0.000000003120496
        0.000000002684327
       -0.000000001832440
       -0.000000001922370
        0.000000000000000
        0.000000000000000
        0.000000000000000
        0.000000000000000
        0.000000000000000
        0.000000000000000
        0.000000001513088
       -0.000000001384634
        0.000000000000000
        0.000000000000000
        0.000000000000000
        0.000000000000000
        0.000000000000000
        0.000000000000000
        0.000000000000000
        0.000000000000000
        0.000000000000000
        0.000000000000000
        0.000000000000000
        0.000000000000000
        0.000000000000000
        0.000000000000000
        0.000000000000000
        0.000000000000000
        0.000000000000000
        0.000000000000000
        0.000000000000000
        0.000000000000000
        0.000000000000000
        0.000000000000000
        0.000000000000000
        0.000000000000000
        0.000000000000000
        0.000000000000000
        0.000000000000000
        0.000000000000000
        0.000000000000000
        0.000000000000000
        0.000000000000000
        0.000000000000000
        0.000000000000000
        0.000000000000000
        0.000000000000000
        0.000000000000000
        0.000000000000000
        0.000000000000000
        0.000000000000000
        0.000000000000000
        0.000000000000000
        0.000000000000000
        0.000000000019809
        0.000000000951174
        0.000000000000000
        0.000000000000000
        0.000000000000000
        0.000000000000000
        0.000000000000000
        0.000000000000000
        0.000000000000000
        0.000000000019809
        0.000000002823867
        0.000000000019743
        0.000000000000000
        0.000000000000000
        0.000000000000000
        0.000000000000000
        0.000000000000000
        0.000000000000000
        0.000000000000000
        0.000000000952389
        0.000000000019743
        0.000000000000000
        0.000000000000000
        0.000000000000000
        0.000000000000000
        0.000000000000000
        0.000000000000000
        0.000000000000000
        0.000000000000000
        0.000000000000000
        0.000000000000000
        0.000000000000000
        0.000000000000000
        0.000000000000000
        0.000000000000000
        0.000000000000000
        0.000000000000000
        0.000000000000000
        0.000000000000000
        0.000000000000000
        0.000000000000000
        0.000000000000000
        0.000000000000000
        0.000000000000000
        0.000000000000000
        0.000000000000000
        0.000000000000000
        0.000000000000000
        0.000000000000000
        0.000000000000000
        0.000000000000000
END_DATAGRID_3D
END_BLOCK_DATAGRID_3D
