ATOMS
         C    7.558905    7.558905    7.558905
         H    8.755769    8.755769    8.755769
         H    6.362040    6.362040    8.755769
         H    8.755769    6.362040    6.362040
         H    6.362040    8.755769    6.362040
BEGIN_BLOCK_DATAGRID_3D
units: coords = b, function = sqrt(b^-3)
BEGIN_DATAGRID_3D_function
      9      9      9
0.0 0.0 0.0
   15.117809    0.000000    0.000000
    0.000000   15.117809    0.000000
    0.000000    0.000000   15.117809
        0.000000000000000
        0.000000000000000
        0.000000000000000
        0.000000000000000
        0.000000000000000
        0.000000000000000
        0.000000000000000
        0.000000000000000
        0.000000000000000
        0.000000000000000
        0.000000000000000
        0.000000000000000
        0.000000000000000
        0.000000000000000
        0.000000000000000
        0.000000000000000
        0.000000000000000
        0.000000000000000
        0.000000000000000
        0.000000000000000
        0.000000000000000
        0.000000000000000
        0.000000000000000
        0.000000000000000
        0.000000000000000
        0.000000000000000
        0.000000000000000
        0.000000000000000
        0.000000000000000
        0.000000000000000
        0.000000000000000
       -0.000609903536877
       -0.000595336309356
        0.000000000000000
        0.000000000000000
        0.000000000000000
        0.000000000000000
        0.000000000000000
        0.000000000000000
       -0.000361179663157
       -0.000710824105983
       -0.000594537891846
        0.000000000000000
        0.000000000000000
        0.000000000000000
        0.000000000000000
        0.000000000000000
        0.000000000000000
       -0.000221247217437
       -0.000343783086761
        0.000000000000000
        0.000000000000000
        0.000000000000000
        0.000000000000000
        0.000000000000000
        0.000000000000000
        0.000000000000000
        0.000000000000000
        0.000000000000000
        0.000000000000000
        0.000000000000000
        0.000000000000000
        0.000000000000000
        0.000000000000000
        0.000000000000000
        0.000000000000000
        0.000000000000000
        0.000000000000000
        0.000000000000000
        0.000000000000000
        0.000000000000000
        0.000000000000000
        0.000000000000000
        0.000000000000000
        0.000000000000000
        0.000000000000000
        0.000000000000000
        0.000000000000000
        0.000000000000000
        0.000000000000000
        0.000000000000000
        0.000000000000000
        0.000000000000000
        0.000000000000000
        0.000000000000000
        0.000000000000000
        0.000000000000000
        0.000000000000000
        0.000000000000000
        0.000000000000000
        0.000000000000000
        0.000000000000000
        0.000000000000000
        0.000000000000000
       -0.000638880607989
       -0.000647566455138
        0.000000000000000
        0.000000000000000
        0.000000000000000
        0.000000000000000
        0.000000000000000
        0.000000000000000
       -0.001078394814306
       -0.002157220674919
       -0.002178288682115
       -0.001112268719936
        0.000000000000000
        0.000000000000000
        0.000000000000000
        0.000000000000000
       -0.000571768896921
       -0.002124715748184
       -0.004097930899468
       -0.004039566450124
       -0.002123000557551
       -0.000617995421737
        0.000000000000000
        0.000000000000000
       -0.000053801447625
       -0.000555983373886
       -0.002137568003359
       -0.004124174540351
       -0.003923310114155
       -0.002012070739699
       -0.000588627555899
        0.000000000000000
        0.000000000000000
        0.000012325931199
       -0.000149949450610
       -0.000906464073819
       -0.001945217506238
       -0.001868109995214
       -0.000937286321049
        0.000000000000000
        0.000000000000000
        0.000000000000000
        0.000000000000000
        0.000053212315287
       -0.000076378565358
       -0.000382112240460
       -0.000417199650092
        0.000000000000000
        0.000000000000000
        0.000000000000000
        0.000000000000000
        0.000000000000000
        0.000000000000000
        0.000053745111799
        0.000011780200704
        0.000000000000000
        0.000000000000000
        0.000000000000000
        0.000000000000000
        0.000000000000000
        0.000000000000000
        0.000000000000000
        0.000000000000000
        0.000000000000000
        0.000000000000000
        0.000000000000000
        0.000000000000000
        0.000000000000000
        0.000000000000000
        0.000000000000000
        0.000000000000000
        0.000000000000000
        0.000000000000000
        0.000000000000000
        0.000000000000000
        0.000000000000000
        0.000000000000000
        0.000000000000000
        0.000000000000000
        0.000000000000000
       -0.001044491193219
       -0.002108226043887
       -0.002141514637604
       -0.001096620635004
        0.000000000000000
        0.000000000000000
        0.000000000000000
        0.000000000000000
       -0.000915846550876
       -0.003781350947073
       -0.007931150284347
       -0.008147333767801
       -0.004014648110474
       -0.001068909509340
        0.000000000000000
        0.000000000000000
       -0.000122816798128
       -0.001580426884768
       -0.007478053233829
       -0.018199251083576
       -0.018488790707489
       -0.007878632573389
       -0.002014748496929
        0.000000000000000
        0.000000000000000
        0.000083807950515
       -0.000898014458752
       -0.006882616376968
       -0.018882515394058
       -0.016981372888696
       -0.007154522563834
       -0.001857686575619
        0.000000000000000
        0.000000000000000
        0.000322703459393
        0.000613821798148
       -0.000692106946102
       -0.005564070848121
       -0.005976375270308
       -0.002991959544701
       -0.000824889985343
        0.000000000000000
        0.000000000000000
        0.000251214996861
        0.000733954916435
        0.000962346153035
        0.000004972943519
       -0.000731951571768
       -0.000522384762300
        0.000000000000000
        0.000000000000000
        0.000000000000000
        0.000000000000000
        0.000290771996272
        0.000492969032446
        0.000392194590620
        0.000129107789298
        0.000000000000000
        0.000000000000000
        0.000000000000000
        0.000000000000000
        0.000000000000000
        0.000000000000000
        0.000000000000000
        0.000000000000000
        0.000000000000000
        0.000000000000000
        0.000000000000000
        0.000000000000000
        0.000000000000000
        0.000000000000000
        0.000000000000000
        0.000000000000000
       -0.000567244999300
       -0.000561436116073
        0.000000000000000
        0.000000000000000
        0.000000000000000
        0.000000000000000
        0.000000000000000
       -0.000498069242778
       -0.001949270949154
       -0.003860362769601
       -0.003870072636606
       -0.002054310473260
       -0.000600537113182
        0.000000000000000
        0.000000000000000
       -0.000083089026905
       -0.001405291437262
       -0.007015088410495
       -0.017522981933485
       -0.018065690824297
       -0.007734924151476
       -0.001982890147586
        0.000000000000000
        0.000000000000000
        0.000211793508707
       -0.001285301180017
       -0.014118218935789
       -0.051375357369961
       -0.054899821437046
       -0.017194973561697
       -0.003527598290001
       -0.000492124976349
        0.000196115495196
        0.000979371260137
        0.002031718860227
       -0.007338533153342
       -0.050081444394671
       -0.045277165457501
       -0.014769860534023
       -0.003159134598346
       -0.000458822798079
        0.000215880194096
        0.001282488354156
        0.004792064626289
        0.010258926008897
       -0.000879265904214
       -0.007890456675309
       -0.004389593704233
       -0.001275077119537
        0.000000000000000
        0.000000000000000
        0.000796524077404
        0.002793692344550
        0.005856851435858
        0.005119630884003
        0.001488721867513
       -0.000109526150892
       -0.000158215976869
        0.000000000000000
        0.000000000000000
        0.000271975280660
        0.000892316125395
        0.001717554199464
        0.001808303091464
        0.000960830680422
        0.000274636350793
        0.000000000000000
        0.000000000000000
        0.000000000000000
        0.000000000000000
        0.000000000000000
        0.000304151044784
        0.000329387510901
        0.000000000000000
        0.000000000000000
        0.000000000000000
        0.000000000000000
        0.000000000000000
        0.000000000000000
        0.000000000000000
       -0.000299316065213
       -0.000626184165671
       -0.000542957130689
        0.000000000000000
        0.000000000000000
        0.000000000000000
        0.000000000000000
       -0.000007994711441
       -0.000381797739387
       -0.001746985534836
       -0.003633003535560
       -0.003594851618237
       -0.001884895664880
       -0.000560385918813
        0.000000000000000
        0.000000000000000
        0.000208681093583
       -0.000341438488219
       -0.005311452281815
       -0.016633302749954
       -0.015725198268551
       -0.006770832739551
       -0.001779754273466
        0.000000000000000
        0.000215188183738
        0.001131477914355
        0.002924179376350
       -0.003812003687661
       -0.044114553007173
       -0.042586629901334
       -0.014191052433889
       -0.003068895935099
       -0.000450057076813
        0.000402394147746
        0.002354076764281
        0.010915641546228
        0.029263475308282
        0.000095659350399
       -0.029773363337114
       -0.011338918756139
       -0.002505704514928
       -0.000435018752775
        0.000324710884449
        0.002319935076608
        0.010808180516965
        0.034345933445072
        0.044168845441648
        0.011520714732942
       -0.000085744645183
       -0.000601046254533
       -0.000133545024725
        0.000000000000000
        0.001242751229417
        0.004920315573063
        0.012560218211360
        0.016647067093104
        0.008347893137721
        0.002006716845559
        0.000238646323956
        0.000000000000000
        0.000000000000000
        0.000366344767249
        0.001373384150316
        0.002946322757429
        0.003635195744127
        0.002374153782095
        0.000853618982560
        0.000180076617892
        0.000000000000000
        0.000000000000000
        0.000000000000000
        0.000000000000000
        0.000438125912940
        0.000626365148445
        0.000401875918717
        0.000000000000000
        0.000000000000000
        0.000000000000000
        0.000000000000000
        0.000000000000000
        0.000000000000000
       -0.000158603471873
       -0.000272900848475
        0.000000000000000
        0.000000000000000
        0.000000000000000
        0.000000000000000
        0.000000000000000
        0.000063714301286
        0.000044702935293
       -0.000493116640772
       -0.001462998203073
       -0.001566404704986
       -0.000831489630179
        0.000000000000000
        0.000000000000000
        0.000000000000000
        0.000480017801343
        0.001303552634492
        0.001134090507970
       -0.003409330764996
       -0.004827626937064
       -0.002621908974931
       -0.000753333098944
        0.000000000000000
        0.000244414511623
        0.001524320351221
        0.006189669820393
        0.015449361192683
        0.005346268061800
       -0.005233720620274
       -0.003706477427575
       -0.001150061744391
        0.000000000000000
        0.000343783572992
        0.002472041730826
        0.011700641033088
        0.037872462910753
        0.050135736829145
        0.014211250289109
        0.000493063454951
       -0.000510807591285
       -0.000124779303459
        0.000000000000000
        0.002071785394582
        0.009067606974876
        0.027021505528304
        0.046973192625564
        0.028736489211973
        0.005779111801376
        0.000542772702799
       -0.000005569170251
        0.000000000000000
        0.000941960684146
        0.004031150176106
        0.010298068499711
        0.015831400685754
        0.010947344158375
        0.003471601571848
        0.000627281333856
        0.000000000000000
        0.000000000000000
        0.000000000000000
        0.001034053176344
        0.002544742292862
        0.003518249302384
        0.002623239810327
        0.001079579378502
        0.000244265431595
        0.000000000000000
        0.000000000000000
        0.000000000000000
        0.000000000000000
        0.000000000000000
        0.000511129505832
        0.000413407504752
        0.000000000000000
        0.000000000000000
        0.000000000000000
        0.000000000000000
        0.000000000000000
        0.000000000000000
        0.000000000000000
        0.000000000000000
        0.000000000000000
        0.000000000000000
        0.000000000000000
        0.000000000000000
        0.000000000000000
        0.000000000000000
        0.000159127669133
        0.000150930943198
       -0.000128620076204
       -0.000271071542479
        0.000000000000000
        0.000000000000000
        0.000000000000000
        0.000000000000000
        0.000341138316424
        0.001105573867178
        0.001798814304149
        0.000949394776881
       -0.000184903438678
       -0.000346582086067
        0.000000000000000
        0.000000000000000
        0.000000000000000
        0.000953838419354
        0.003483423180894
        0.007683048889930
        0.007274370967128
        0.002637470200758
        0.000260524418879
       -0.000086659090470
        0.000000000000000
        0.000000000000000
        0.001367624372485
        0.005476891543596
        0.014131382306513
        0.018896279737208
        0.009604067757866
        0.002390406669842
        0.000316578626109
        0.000000000000000
        0.000000000000000
        0.000981688455369
        0.004206285623612
        0.010761033323045
        0.016507669835845
        0.011370444041567
        0.003615309993760
        0.000659139683199
        0.000000000000000
        0.000000000000000
        0.000000000000000
        0.001752183541467
        0.004683512659524
        0.006983239671539
        0.005335168352020
        0.002100539921386
        0.000440161569278
        0.000000000000000
        0.000000000000000
        0.000000000000000
        0.000000000000000
        0.001184683136319
        0.001845973330259
        0.001485656746857
        0.000629011570119
        0.000000000000000
        0.000000000000000
        0.000000000000000
        0.000000000000000
        0.000000000000000
        0.000000000000000
        0.000000000000000
        0.000000000000000
        0.000000000000000
        0.000000000000000
        0.000000000000000
        0.000000000000000
        0.000000000000000
        0.000000000000000
        0.000000000000000
        0.000000000000000
        0.000000000000000
        0.000000000000000
        0.000000000000000
        0.000000000000000
        0.000000000000000
        0.000000000000000
        0.000000000000000
        0.000123017651317
        0.000086404529674
        0.000000000000000
        0.000000000000000
        0.000000000000000
        0.000000000000000
        0.000000000000000
        0.000000000000000
        0.000396687350118
        0.000720278541002
        0.000645686754876
        0.000275235896911
        0.000000000000000
        0.000000000000000
        0.000000000000000
        0.000000000000000
        0.000323363650747
        0.001086968511298
        0.002130901632511
        0.002290522394629
        0.001262535970651
        0.000380433041662
        0.000000000000000
        0.000000000000000
        0.000000000000000
        0.000412151503433
        0.001547569784815
        0.003336905225953
        0.004126366748917
        0.002702612278013
        0.000980794057379
        0.000208318254977
        0.000000000000000
        0.000000000000000
        0.000000000000000
        0.001107752830487
        0.002720187091893
        0.003755817432251
        0.002792733623845
        0.001148269462794
        0.000261723740150
        0.000000000000000
        0.000000000000000
        0.000000000000000
        0.000000000000000
        0.001218586757405
        0.001894967961292
        0.001522430791367
        0.000644659655050
        0.000000000000000
        0.000000000000000
        0.000000000000000
        0.000000000000000
        0.000000000000000
        0.000000000000000
        0.000540994127056
        0.000467725929141
        0.000000000000000
        0.000000000000000
        0.000000000000000
        0.000000000000000
        0.000000000000000
        0.000000000000000
        0.000000000000000
        0.000000000000000
        0.000000000000000
        0.000000000000000
        0.000000000000000
        0.000000000000000
        0.000000000000000
        0.000000000000000
        0.000000000000000
        0.000000000000000
        0.000000000000000
        0.000000000000000
        0.000000000000000
        0.000000000000000
        0.000000000000000
        0.000000000000000
        0.000000000000000
        0.000000000000000
        0.000000000000000
        0.000000000000000
        0.000000000000000
        0.000000000000000
        0.000000000000000
        0.000000000000000
        0.000000000000000
        0.000000000000000
        0.000000000000000
        0.000000000000000
        0.000000000000000
        0.000000000000000
        0.000000000000000
        0.000000000000000
        0.000000000000000
        0.000000000000000
        0.000000000000000
        0.000000000000000
        0.000366794790348
        0.000400269749187
        0.000000000000000
        0.000000000000000
        0.000000000000000
        0.000000000000000
        0.000000000000000
        0.000000000000000
        0.000000000000000
        0.000499989510885
        0.000711005088758
        0.000453456679873
        0.000000000000000
        0.000000000000000
        0.000000000000000
        0.000000000000000
        0.000000000000000
        0.000000000000000
        0.000000000000000
        0.000553788043409
        0.000447307698034
        0.000000000000000
        0.000000000000000
        0.000000000000000
        0.000000000000000
        0.000000000000000
        0.000000000000000
        0.000000000000000
        0.000000000000000
        0.000000000000000
        0.000000000000000
        0.000000000000000
        0.000000000000000
        0.000000000000000
        0.000000000000000
        0.000000000000000
        0.000000000000000
        0.000000000000000
        0.000000000000000
        0.000000000000000
        0.000000000000000
        0.000000000000000
        0.000000000000000
        0.000000000000000
        0.000000000000000
        0.000000000000000
        0.000000000000000
        0.000000000000000
        0.000000000000000
        0.000000000000000
        0.000000000000000
END_DATAGRID_3D
END_BLOCK_DATAGRID_3D
