ATOMS
         C    7.558905    7.558905    7.558905
         H    8.755769    8.755769    8.755769
         H    6.362040    6.362040    8.755769
         H    8.755769    6.362040    6.362040
         H    6.362040    8.755769    6.362040
BEGIN_BLOCK_DATAGRID_3D
units: coords = b, function = sqrt(b^-3)
BEGIN_DATAGRID_3D_function
      9      9      9
0.0 0.0 0.0
   15.117809    0.000000    0.000000
    0.000000   15.117809    0.000000
    0.000000    0.000000   15.117809
        0.000000000000000
        0.000000000000000
        0.000000000000000
        0.000000000000000
        0.000000000000000
        0.000000000000000
        0.000000000000000
        0.000000000000000
        0.000000000000000
        0.000000000000000
        0.000000000000000
        0.000000000000000
        0.000000000000000
        0.000000000000000
        0.000000000000000
        0.000000000000000
        0.000000000000000
        0.000000000000000
        0.000000000000000
        0.000000000000000
        0.000000000000000
        0.000000000000000
        0.000000000000000
        0.000000000000000
        0.000000000000000
        0.000000000000000
        0.000000000000000
        0.000000000000000
        0.000000000000000
        0.000000000000000
        0.000000000000000
       -0.000128504823819
        0.000048326100585
        0.000000000000000
        0.000000000000000
        0.000000000000000
        0.000000000000000
        0.000000000000000
        0.000000000000000
       -0.000285016840379
       -0.000119306107991
        0.000124319969561
        0.000000000000000
        0.000000000000000
        0.000000000000000
        0.000000000000000
        0.000000000000000
        0.000000000000000
       -0.000185134360646
       -0.000031352207137
        0.000000000000000
        0.000000000000000
        0.000000000000000
        0.000000000000000
        0.000000000000000
        0.000000000000000
        0.000000000000000
        0.000000000000000
        0.000000000000000
        0.000000000000000
        0.000000000000000
        0.000000000000000
        0.000000000000000
        0.000000000000000
        0.000000000000000
        0.000000000000000
        0.000000000000000
        0.000000000000000
        0.000000000000000
        0.000000000000000
        0.000000000000000
        0.000000000000000
        0.000000000000000
        0.000000000000000
        0.000000000000000
        0.000000000000000
        0.000000000000000
        0.000000000000000
        0.000000000000000
        0.000000000000000
        0.000000000000000
        0.000000000000000
        0.000000000000000
        0.000000000000000
        0.000000000000000
        0.000000000000000
        0.000000000000000
        0.000000000000000
        0.000000000000000
        0.000000000000000
        0.000000000000000
        0.000000000000000
        0.000000000000000
        0.000000000000000
       -0.000277369061277
       -0.000094669553831
        0.000000000000000
        0.000000000000000
        0.000000000000000
        0.000000000000000
        0.000000000000000
        0.000000000000000
       -0.001007340159790
       -0.000840099625451
       -0.000013117414474
        0.000276236841532
        0.000000000000000
        0.000000000000000
        0.000000000000000
        0.000000000000000
       -0.001333006803128
       -0.002158277921784
       -0.001201982119895
        0.000567003313442
        0.000909038692181
        0.000410059155854
        0.000000000000000
        0.000000000000000
       -0.000652902984831
       -0.001860600568566
       -0.002441793215315
       -0.000693314112401
        0.001416867890360
        0.001419185886914
        0.000540134463594
        0.000000000000000
        0.000000000000000
       -0.000514561373658
       -0.001294431475041
       -0.001398075880518
        0.000185798421056
        0.001478449282920
        0.001070869805833
        0.000000000000000
        0.000000000000000
        0.000000000000000
        0.000000000000000
       -0.000453352825575
       -0.000363381711099
        0.000413167578614
        0.000752002973527
        0.000000000000000
        0.000000000000000
        0.000000000000000
        0.000000000000000
        0.000000000000000
        0.000000000000000
       -0.000003780359455
        0.000172472318700
        0.000000000000000
        0.000000000000000
        0.000000000000000
        0.000000000000000
        0.000000000000000
        0.000000000000000
        0.000000000000000
        0.000000000000000
        0.000000000000000
        0.000000000000000
        0.000000000000000
        0.000000000000000
        0.000000000000000
        0.000000000000000
        0.000000000000000
        0.000000000000000
        0.000000000000000
        0.000000000000000
        0.000000000000000
        0.000000000000000
        0.000000000000000
        0.000000000000000
        0.000000000000000
        0.000000000000000
        0.000000000000000
       -0.001337975581392
       -0.001312469154269
       -0.000363307107173
        0.000128945789783
        0.000000000000000
        0.000000000000000
        0.000000000000000
        0.000000000000000
       -0.002713332939926
       -0.005121206010773
       -0.004065138375686
        0.000060059078350
        0.001217638964496
        0.000585261841521
        0.000000000000000
        0.000000000000000
       -0.001938663451450
       -0.006542962998159
       -0.011178767722965
       -0.006915131451238
        0.003994128106498
        0.004262331098078
        0.001642006074539
        0.000000000000000
        0.000000000000000
       -0.002726949152538
       -0.008564527437209
       -0.014104758635938
       -0.003183731315181
        0.010049674139815
        0.007167807197814
        0.002405269189392
        0.000000000000000
        0.000000000000000
       -0.001937832966314
       -0.005494938761314
       -0.007221081375069
        0.002910145810359
        0.008868369637174
        0.005725957485085
        0.001759563366266
        0.000000000000000
        0.000000000000000
       -0.000724437679378
       -0.001766491307088
       -0.001258966202509
        0.002728972063706
        0.004335586450039
        0.002449114379069
        0.000000000000000
        0.000000000000000
        0.000000000000000
        0.000000000000000
       -0.000261565246825
        0.000090855245993
        0.001023281197294
        0.001177596015363
        0.000000000000000
        0.000000000000000
        0.000000000000000
        0.000000000000000
        0.000000000000000
        0.000000000000000
        0.000000000000000
        0.000000000000000
        0.000000000000000
        0.000000000000000
        0.000000000000000
        0.000000000000000
        0.000000000000000
        0.000000000000000
        0.000000000000000
        0.000000000000000
       -0.000539189085308
       -0.000274823007877
        0.000000000000000
        0.000000000000000
        0.000000000000000
        0.000000000000000
        0.000000000000000
       -0.002060894488304
       -0.003870604857101
       -0.003492203353002
       -0.001047151144294
        0.000262754749725
        0.000247760399333
        0.000000000000000
        0.000000000000000
       -0.002336017604057
       -0.008273451460262
       -0.015696050290533
       -0.013434442664260
       -0.000036220108063
        0.002910045125819
        0.001345846230664
        0.000000000000000
        0.000000000000000
       -0.005288406298954
       -0.019412225237163
       -0.041335001925429
       -0.030330968534938
        0.016839792768321
        0.012470320040490
        0.003950380176334
        0.000723676928899
       -0.001039578214581
       -0.006635710949286
       -0.025989138569978
       -0.058433652876865
       -0.008462684824019
        0.049371458954786
        0.023733176292565
        0.006204639358618
        0.000981405402888
       -0.000779204546564
       -0.004358682251614
       -0.014579209257395
       -0.024381980038334
        0.021478749847878
        0.037449755395836
        0.018318991587172
        0.005049080536183
        0.000000000000000
        0.000000000000000
       -0.001550353356187
       -0.003734536026218
       -0.001997866846640
        0.011329341659094
        0.014680981774338
        0.007942793210610
        0.002266277561583
        0.000000000000000
        0.000000000000000
       -0.000302230391258
       -0.000452612976659
        0.000695274975890
        0.003143680861950
        0.003680584221478
        0.002003348512604
        0.000000000000000
        0.000000000000000
        0.000000000000000
        0.000000000000000
        0.000000000000000
        0.000233608269872
        0.000499841473094
        0.000000000000000
        0.000000000000000
        0.000000000000000
        0.000000000000000
        0.000000000000000
        0.000000000000000
        0.000000000000000
       -0.000888195977693
       -0.000935342904226
       -0.000367405098599
        0.000000000000000
        0.000000000000000
        0.000000000000000
        0.000000000000000
       -0.001111087072922
       -0.003581891152436
       -0.006254049259172
       -0.005428540049679
       -0.001711056148080
        0.000222626335443
        0.000277494799401
        0.000000000000000
        0.000000000000000
       -0.003976395396509
       -0.014063150689196
       -0.029432595293498
       -0.024867140808208
       -0.001919185983130
        0.003557307414245
        0.001680816908740
        0.000000000000000
       -0.001232297483337
       -0.008159484469203
       -0.034797069297938
       -0.092807410716364
       -0.065985270976121
        0.023709634955094
        0.018283338144707
        0.005366501358813
        0.000900462230252
       -0.001615222638017
       -0.009347249313567
       -0.042651184314255
       -0.113096541745890
        0.000020248509816
        0.112498199293727
        0.042385336016229
        0.009221678575552
        0.001584401177080
       -0.000933675928063
       -0.005538444497535
       -0.018905891788413
       -0.025230131430940
        0.065808875901407
        0.093641704822587
        0.035039469064080
        0.008145978170401
        0.001226233388153
        0.000000000000000
       -0.001779170569170
       -0.003865815655765
        0.001398426833178
        0.024814066716809
        0.029775145159853
        0.014214615180596
        0.003998029811848
        0.000000000000000
        0.000000000000000
       -0.000309454232210
       -0.000302299964134
        0.001614105263282
        0.005421029245679
        0.006318750764176
        0.003622910202796
        0.001124364698409
        0.000000000000000
        0.000000000000000
        0.000000000000000
        0.000000000000000
        0.000351980697478
        0.000934326240862
        0.000900724063223
        0.000000000000000
        0.000000000000000
        0.000000000000000
        0.000000000000000
        0.000000000000000
        0.000000000000000
       -0.000795918801834
       -0.000715574645572
        0.000000000000000
        0.000000000000000
        0.000000000000000
        0.000000000000000
        0.000000000000000
       -0.001028535388043
       -0.003218122581499
       -0.005432410530159
       -0.004463018669795
       -0.001394880423881
        0.000074898186556
        0.000000000000000
        0.000000000000000
        0.000000000000000
       -0.003512225767096
       -0.012307809582560
       -0.025041356253721
       -0.017865009741045
       -0.002075220850959
        0.002244361725179
        0.001093966709860
        0.000000000000000
       -0.001067638204745
       -0.006782013072646
       -0.028365314690074
       -0.075011065439889
       -0.038558549807228
        0.012118168705807
        0.011891895523247
        0.003886718423360
        0.000000000000000
       -0.001126395196820
       -0.007062218017453
       -0.027713822516373
       -0.059603889270439
        0.008286289749304
        0.067979880822894
        0.029589630916222
        0.007307840170596
        0.001145290215518
        0.000000000000000
       -0.003767634626183
       -0.011050196452782
       -0.008555072405520
        0.047142703499775
        0.081981745731194
        0.030168631100652
        0.007038551686090
        0.001089755878739
        0.000000000000000
       -0.001068450076094
       -0.002010479953852
        0.002997671234134
        0.019898281442120
        0.026912240786119
        0.012994459536768
        0.003648956723106
        0.000000000000000
        0.000000000000000
        0.000000000000000
       -0.000036771168283
        0.001566754568937
        0.004799672255583
        0.005753415892860
        0.003371649703555
        0.001065443853800
        0.000000000000000
        0.000000000000000
        0.000000000000000
        0.000000000000000
        0.000000000000000
        0.000753738974092
        0.000834339733721
        0.000000000000000
        0.000000000000000
        0.000000000000000
        0.000000000000000
        0.000000000000000
        0.000000000000000
        0.000000000000000
        0.000000000000000
        0.000000000000000
        0.000000000000000
        0.000000000000000
        0.000000000000000
        0.000000000000000
        0.000000000000000
       -0.001499404297469
       -0.002582020481673
       -0.002030652477853
       -0.000640667225776
        0.000000000000000
        0.000000000000000
        0.000000000000000
        0.000000000000000
       -0.001623864065553
       -0.005438597317376
       -0.009422663092115
       -0.006375946366100
       -0.000874682444346
        0.000794065574498
        0.000000000000000
        0.000000000000000
        0.000000000000000
       -0.003124746156969
       -0.010547406847464
       -0.019818141725292
       -0.009445813892309
        0.003737391286205
        0.004461197450704
        0.001600680905177
        0.000000000000000
        0.000000000000000
       -0.003028616813141
       -0.009364438907752
       -0.013929409824381
        0.003130657223781
        0.017806285036908
        0.010604115397027
        0.003273577531196
        0.000000000000000
        0.000000000000000
       -0.001465804228701
       -0.003740968415955
       -0.001519611333434
        0.013378970229098
        0.022881892571558
        0.011642173564510
        0.003352796879231
        0.000000000000000
        0.000000000000000
        0.000000000000000
       -0.000559726629378
        0.001631085188119
        0.007687275511745
        0.010555459960944
        0.005920503182825
        0.001732227202054
        0.000000000000000
        0.000000000000000
        0.000000000000000
        0.000000000000000
        0.000796700460232
        0.002314423642183
        0.002838866077858
        0.001616029558621
        0.000000000000000
        0.000000000000000
        0.000000000000000
        0.000000000000000
        0.000000000000000
        0.000000000000000
        0.000000000000000
        0.000000000000000
        0.000000000000000
        0.000000000000000
        0.000000000000000
        0.000000000000000
        0.000000000000000
        0.000000000000000
        0.000000000000000
        0.000000000000000
        0.000000000000000
        0.000000000000000
        0.000000000000000
        0.000000000000000
        0.000000000000000
        0.000000000000000
        0.000000000000000
       -0.000679220516978
       -0.000547786579275
        0.000000000000000
        0.000000000000000
        0.000000000000000
        0.000000000000000
        0.000000000000000
        0.000000000000000
       -0.001307616718719
       -0.002127783524581
       -0.001420538859173
       -0.000215074183940
        0.000000000000000
        0.000000000000000
        0.000000000000000
        0.000000000000000
       -0.000816204405644
       -0.002376304083118
       -0.003339059673751
       -0.001505136228902
        0.000807254514677
        0.001007376893327
        0.000000000000000
        0.000000000000000
        0.000000000000000
       -0.000767638320302
       -0.002023590548003
       -0.002198150780575
        0.000685803308400
        0.003190826725736
        0.002426350651326
        0.000861725034216
        0.000000000000000
        0.000000000000000
        0.000000000000000
       -0.000764658853460
       -0.000145572366379
        0.002509451022476
        0.004139261435124
        0.002725365761099
        0.000903145097278
        0.000000000000000
        0.000000000000000
        0.000000000000000
        0.000000000000000
        0.000466065038629
        0.001842054113365
        0.002488676385159
        0.001468738506873
        0.000000000000000
        0.000000000000000
        0.000000000000000
        0.000000000000000
        0.000000000000000
        0.000000000000000
        0.000651295534643
        0.000774337576654
        0.000000000000000
        0.000000000000000
        0.000000000000000
        0.000000000000000
        0.000000000000000
        0.000000000000000
        0.000000000000000
        0.000000000000000
        0.000000000000000
        0.000000000000000
        0.000000000000000
        0.000000000000000
        0.000000000000000
        0.000000000000000
        0.000000000000000
        0.000000000000000
        0.000000000000000
        0.000000000000000
        0.000000000000000
        0.000000000000000
        0.000000000000000
        0.000000000000000
        0.000000000000000
        0.000000000000000
        0.000000000000000
        0.000000000000000
        0.000000000000000
        0.000000000000000
        0.000000000000000
        0.000000000000000
        0.000000000000000
        0.000000000000000
        0.000000000000000
        0.000000000000000
        0.000000000000000
        0.000000000000000
        0.000000000000000
        0.000000000000000
        0.000000000000000
        0.000000000000000
        0.000000000000000
        0.000000000000000
       -0.000377176171317
       -0.000184380965340
        0.000000000000000
        0.000000000000000
        0.000000000000000
        0.000000000000000
        0.000000000000000
        0.000000000000000
        0.000000000000000
       -0.000251198439836
        0.000118289444626
        0.000408998995064
        0.000000000000000
        0.000000000000000
        0.000000000000000
        0.000000000000000
        0.000000000000000
        0.000000000000000
        0.000000000000000
        0.000343054712603
        0.000511190625259
        0.000000000000000
        0.000000000000000
        0.000000000000000
        0.000000000000000
        0.000000000000000
        0.000000000000000
        0.000000000000000
        0.000000000000000
        0.000000000000000
        0.000000000000000
        0.000000000000000
        0.000000000000000
        0.000000000000000
        0.000000000000000
        0.000000000000000
        0.000000000000000
        0.000000000000000
        0.000000000000000
        0.000000000000000
        0.000000000000000
        0.000000000000000
        0.000000000000000
        0.000000000000000
        0.000000000000000
        0.000000000000000
        0.000000000000000
        0.000000000000000
        0.000000000000000
        0.000000000000000
        0.000000000000000
END_DATAGRID_3D
END_BLOCK_DATAGRID_3D
