ATOMS
         C    7.558905    7.558905    7.558905
         H    8.755769    8.755769    8.755769
         H    6.362040    6.362040    8.755769
         H    8.755769    6.362040    6.362040
         H    6.362040    8.755769    6.362040
BEGIN_BLOCK_DATAGRID_3D
units: coords = b, function = sqrt(b^-3)
BEGIN_DATAGRID_3D_function
      9      9      9
0.0 0.0 0.0
   15.117809    0.000000    0.000000
    0.000000   15.117809    0.000000
    0.000000    0.000000   15.117809
        0.000000000000000
        0.000000000000000
        0.000000000000000
        0.000000000000000
        0.000000000000000
        0.000000000000000
        0.000000000000000
        0.000000000000000
        0.000000000000000
        0.000000000000000
        0.000000000000000
        0.000000000000000
        0.000000000000000
        0.000000000000000
        0.000000000000000
        0.000000000000000
        0.000000000000000
        0.000000000000000
        0.000000000000000
        0.000000000000000
        0.000000000000000
        0.000000000000000
        0.000000000000000
        0.000000000000000
        0.000000000000000
        0.000000000000000
        0.000000000000000
        0.000000000000000
        0.000000000000000
        0.000000000000000
        0.000000000000000
        0.000672249578294
        0.000468090076113
        0.000000000000000
        0.000000000000000
        0.000000000000000
        0.000000000000000
        0.000000000000000
        0.000000000000000
        0.001076656294639
        0.001345771016698
        0.000729255361592
        0.000000000000000
        0.000000000000000
        0.000000000000000
        0.000000000000000
        0.000000000000000
        0.000000000000000
        0.001072297281478
        0.001133364343529
        0.000000000000000
        0.000000000000000
        0.000000000000000
        0.000000000000000
        0.000000000000000
        0.000000000000000
        0.000000000000000
        0.000000000000000
        0.000000000000000
        0.000000000000000
        0.000000000000000
        0.000000000000000
        0.000000000000000
        0.000000000000000
        0.000000000000000
        0.000000000000000
        0.000000000000000
        0.000000000000000
        0.000000000000000
        0.000000000000000
        0.000000000000000
        0.000000000000000
        0.000000000000000
        0.000000000000000
        0.000000000000000
        0.000000000000000
        0.000000000000000
        0.000000000000000
        0.000000000000000
        0.000000000000000
        0.000000000000000
        0.000000000000000
        0.000000000000000
        0.000000000000000
        0.000000000000000
        0.000000000000000
        0.000000000000000
        0.000000000000000
        0.000000000000000
        0.000000000000000
        0.000000000000000
        0.000000000000000
        0.000000000000000
        0.000000000000000
        0.000021163981256
       -0.000038895238724
        0.000000000000000
        0.000000000000000
        0.000000000000000
        0.000000000000000
        0.000000000000000
        0.000000000000000
        0.000771635258123
        0.000840926116066
        0.000363472610836
        0.000040854406636
        0.000000000000000
        0.000000000000000
        0.000000000000000
        0.000000000000000
        0.001607303156901
        0.003376643062861
        0.003831290140650
        0.002116943489922
        0.000572535612285
        0.000075976717957
        0.000000000000000
        0.000000000000000
        0.000984939286875
        0.003466962615762
        0.007030255449495
        0.007809447104362
        0.004419085846478
        0.001350749406761
        0.000206691173592
        0.000000000000000
        0.000000000000000
        0.001041762158714
        0.003670343408090
        0.007201273075878
        0.007612845715262
        0.004188628770352
        0.001238959817144
        0.000000000000000
        0.000000000000000
        0.000000000000000
        0.000000000000000
        0.001928864257835
        0.003874135650502
        0.003968580522135
        0.002071186088285
        0.000000000000000
        0.000000000000000
        0.000000000000000
        0.000000000000000
        0.000000000000000
        0.000000000000000
        0.001152951952804
        0.001166618635051
        0.000000000000000
        0.000000000000000
        0.000000000000000
        0.000000000000000
        0.000000000000000
        0.000000000000000
        0.000000000000000
        0.000000000000000
        0.000000000000000
        0.000000000000000
        0.000000000000000
        0.000000000000000
        0.000000000000000
        0.000000000000000
        0.000000000000000
        0.000000000000000
        0.000000000000000
        0.000000000000000
        0.000000000000000
        0.000000000000000
        0.000000000000000
        0.000000000000000
        0.000000000000000
        0.000000000000000
        0.000000000000000
       -0.000238102547151
       -0.000601657890799
       -0.000705982591578
       -0.000408962320828
        0.000000000000000
        0.000000000000000
        0.000000000000000
        0.000000000000000
        0.000786060983580
        0.001259107703934
        0.000465414642022
       -0.000898189681799
       -0.000826380717176
       -0.000304179870742
        0.000000000000000
        0.000000000000000
        0.001294964509119
        0.004901150250512
        0.010497277765877
        0.011337056046996
        0.003535044954718
        0.000058669351147
       -0.000247293944454
        0.000000000000000
        0.000000000000000
        0.003021915927265
        0.012031525164495
        0.029859809798921
        0.035764041308017
        0.015180855969400
        0.003015271395551
        0.000245804222062
        0.000000000000000
        0.000000000000000
        0.003341814590369
        0.013424943177620
        0.032517487530105
        0.033681641658332
        0.015015668277334
        0.003712314933444
        0.000466066398899
        0.000000000000000
        0.000000000000000
        0.001791404363150
        0.006889726722830
        0.014367075594364
        0.014552079339997
        0.007339840314651
        0.001949897805389
        0.000000000000000
        0.000000000000000
        0.000000000000000
        0.000000000000000
        0.001892630347870
        0.003788317887362
        0.003853313401750
        0.001990779942796
        0.000000000000000
        0.000000000000000
        0.000000000000000
        0.000000000000000
        0.000000000000000
        0.000000000000000
        0.000000000000000
        0.000000000000000
        0.000000000000000
        0.000000000000000
        0.000000000000000
        0.000000000000000
        0.000000000000000
        0.000000000000000
        0.000000000000000
        0.000000000000000
       -0.000581951870681
       -0.000518785044445
        0.000000000000000
        0.000000000000000
        0.000000000000000
        0.000000000000000
        0.000000000000000
       -0.000615615700834
       -0.001852685462186
       -0.003162887767752
       -0.002812573050159
       -0.001401171035587
       -0.000419672506237
        0.000000000000000
        0.000000000000000
        0.000081472294567
       -0.000383642326477
       -0.003298192070561
       -0.008572471384232
       -0.008773360904926
       -0.004071118870308
       -0.001151745709830
        0.000000000000000
        0.000000000000000
        0.001755685124832
        0.006212394404793
        0.011977232610367
        0.004325860229038
       -0.011437256679813
       -0.005918131968641
       -0.001664373249854
       -0.000288220337276
        0.000689835354297
        0.004868711790906
        0.023677952849485
        0.076635433179178
        0.094882370300439
        0.022477435758649
       -0.000102018138332
       -0.000942105420753
       -0.000231839294790
        0.000769176917315
        0.005683450688779
        0.028695281016952
        0.095001404837882
        0.094715191891402
        0.029857084349779
        0.004436242330794
        0.000184263201041
        0.000000000000000
        0.000000000000000
        0.003268609112734
        0.013092355037019
        0.031530679697252
        0.032091025694803
        0.013917507143980
        0.003293494139048
        0.000370334252682
        0.000000000000000
        0.000000000000000
        0.001001647038906
        0.003511300909735
        0.006805781944742
        0.007054020963676
        0.003772585355987
        0.001062789130146
        0.000000000000000
        0.000000000000000
        0.000000000000000
        0.000000000000000
        0.000000000000000
        0.000993185365723
        0.001033007354253
        0.000000000000000
        0.000000000000000
        0.000000000000000
        0.000000000000000
        0.000000000000000
        0.000000000000000
        0.000000000000000
       -0.000765411247146
       -0.001146349154999
       -0.000772439129320
        0.000000000000000
        0.000000000000000
        0.000000000000000
        0.000000000000000
       -0.000414323361024
       -0.001789740274599
       -0.004612111941777
       -0.006651606772464
       -0.005133378733175
       -0.002303461051164
       -0.000595392271718
        0.000000000000000
        0.000000000000000
       -0.000793806847019
       -0.004760891532956
       -0.016950347658435
       -0.030455597852889
       -0.021371218498577
       -0.008010946272632
       -0.001966623146866
        0.000000000000000
        0.000101283980930
        0.000215212409993
       -0.003220860953175
       -0.028339655792323
       -0.080787645977182
       -0.055892007294888
       -0.016745448487812
       -0.003501721145948
       -0.000479034169110
        0.000575037877985
        0.003327728502410
        0.015184313260809
        0.040263672537923
       -0.000007208702901
       -0.040050655727795
       -0.015089668202250
       -0.003283023872209
       -0.000564065082609
        0.000669827520944
        0.004661408199713
        0.022339734139907
        0.070362381428609
        0.080850444657104
        0.014113577612116
       -0.002238085536433
       -0.001308877326304
       -0.000278093985699
        0.000000000000000
        0.002842854675848
        0.011143810220946
        0.026930834783279
        0.030474492841218
        0.011454175932930
        0.001683936969945
       -0.000055111746360
        0.000000000000000
        0.000000000000000
        0.000920052440389
        0.003172557085600
        0.006263985489463
        0.006654280705266
        0.003492986336438
        0.000934405715625
        0.000096314131108
        0.000000000000000
        0.000000000000000
        0.000000000000000
        0.000000000000000
        0.000956310067915
        0.001146711098876
        0.000582571430286
        0.000000000000000
        0.000000000000000
        0.000000000000000
        0.000000000000000
        0.000000000000000
        0.000000000000000
       -0.000792996334528
       -0.000956203858071
        0.000000000000000
        0.000000000000000
        0.000000000000000
        0.000000000000000
        0.000000000000000
       -0.000527879081590
       -0.002204476738055
       -0.005119307081935
       -0.006584321495929
       -0.004586322255493
       -0.001802668911227
        0.000000000000000
        0.000000000000000
        0.000000000000000
       -0.001466272587933
       -0.007381095078396
       -0.021904404589398
       -0.029764252520257
       -0.018405303340708
       -0.006920238724655
       -0.001566619947225
        0.000000000000000
       -0.000111679609088
       -0.001717234733311
       -0.013406535465360
       -0.059616334932970
       -0.088634586225124
       -0.047503836704926
       -0.015191666386351
       -0.003365510634585
        0.000000000000000
        0.000081276147577
        0.000007908818800
       -0.004559079662752
       -0.034612707542891
       -0.094819571620515
       -0.064255865441421
       -0.018881515885913
       -0.003868493051498
       -0.000525288860018
        0.000000000000000
        0.001468369834506
        0.004632578860542
        0.005784208939873
       -0.010311031667256
       -0.023744350152856
       -0.009261826141527
       -0.002247813163806
       -0.000357382645885
        0.000000000000000
        0.001130557443244
        0.004044840453920
        0.007818961390264
        0.006271270269927
       -0.000794812259336
       -0.001591068122564
       -0.000626461717360
        0.000000000000000
        0.000000000000000
        0.000000000000000
        0.001362408854604
        0.002672882721510
        0.002697413767094
        0.001137088550033
        0.000107281156036
       -0.000047843345329
        0.000000000000000
        0.000000000000000
        0.000000000000000
        0.000000000000000
        0.000000000000000
        0.000505569637134
        0.000319590640433
        0.000000000000000
        0.000000000000000
        0.000000000000000
        0.000000000000000
        0.000000000000000
        0.000000000000000
        0.000000000000000
        0.000000000000000
        0.000000000000000
        0.000000000000000
        0.000000000000000
        0.000000000000000
        0.000000000000000
        0.000000000000000
       -0.001265704891210
       -0.002901434347522
       -0.003494677613791
       -0.002181932781127
        0.000000000000000
        0.000000000000000
        0.000000000000000
        0.000000000000000
       -0.000955381872820
       -0.004324632118664
       -0.010564292437152
       -0.013253714449267
       -0.008571962034902
       -0.003104507253355
        0.000000000000000
        0.000000000000000
        0.000000000000000
       -0.001539478065568
       -0.007713683218997
       -0.022891212422252
       -0.031354868483787
       -0.019503464474063
       -0.007339059519051
       -0.001662352093441
        0.000000000000000
        0.000000000000000
       -0.000972868098436
       -0.005648606476505
       -0.019879322674076
       -0.035745146319688
       -0.025097898535046
       -0.009342280698238
       -0.002267539115288
        0.000000000000000
        0.000000000000000
       -0.000082934771308
       -0.001239952123069
       -0.005976508446175
       -0.013638257161301
       -0.013103218118979
       -0.005720856344019
       -0.001530913482736
        0.000000000000000
        0.000000000000000
        0.000000000000000
        0.000379185952014
       -0.000016584460059
       -0.001754937215236
       -0.002881057462456
       -0.001714880169426
       -0.000520872942724
        0.000000000000000
        0.000000000000000
        0.000000000000000
        0.000000000000000
        0.000430802729623
        0.000244950543461
       -0.000175344938029
       -0.000212269017728
        0.000000000000000
        0.000000000000000
        0.000000000000000
        0.000000000000000
        0.000000000000000
        0.000000000000000
        0.000000000000000
        0.000000000000000
        0.000000000000000
        0.000000000000000
        0.000000000000000
        0.000000000000000
        0.000000000000000
        0.000000000000000
        0.000000000000000
        0.000000000000000
        0.000000000000000
        0.000000000000000
        0.000000000000000
        0.000000000000000
        0.000000000000000
        0.000000000000000
        0.000000000000000
       -0.000909795767767
       -0.001033002431998
        0.000000000000000
        0.000000000000000
        0.000000000000000
        0.000000000000000
        0.000000000000000
        0.000000000000000
       -0.001301938801176
       -0.002987252110661
       -0.003609944734175
       -0.002262338926615
        0.000000000000000
        0.000000000000000
        0.000000000000000
        0.000000000000000
       -0.000567994201398
       -0.002363519236409
       -0.005514798213071
       -0.007143146247516
       -0.005002365669858
       -0.001978839598225
        0.000000000000000
        0.000000000000000
        0.000000000000000
       -0.000479210207510
       -0.002084145804762
       -0.005378381901809
       -0.007806773171560
       -0.006059478243215
       -0.002719804742301
       -0.000705769314202
        0.000000000000000
        0.000000000000000
        0.000000000000000
       -0.000860510003131
       -0.002556445803537
       -0.004296764141308
       -0.003792427990048
       -0.001866425491836
       -0.000543492569523
        0.000000000000000
        0.000000000000000
        0.000000000000000
        0.000000000000000
       -0.000578935075651
       -0.001197633463404
       -0.001244800140443
       -0.000662085745192
        0.000000000000000
        0.000000000000000
        0.000000000000000
        0.000000000000000
        0.000000000000000
        0.000000000000000
       -0.000154286116066
       -0.000203074412010
        0.000000000000000
        0.000000000000000
        0.000000000000000
        0.000000000000000
        0.000000000000000
        0.000000000000000
        0.000000000000000
        0.000000000000000
        0.000000000000000
        0.000000000000000
        0.000000000000000
        0.000000000000000
        0.000000000000000
        0.000000000000000
        0.000000000000000
        0.000000000000000
        0.000000000000000
        0.000000000000000
        0.000000000000000
        0.000000000000000
        0.000000000000000
        0.000000000000000
        0.000000000000000
        0.000000000000000
        0.000000000000000
        0.000000000000000
        0.000000000000000
        0.000000000000000
        0.000000000000000
        0.000000000000000
        0.000000000000000
        0.000000000000000
        0.000000000000000
        0.000000000000000
        0.000000000000000
        0.000000000000000
        0.000000000000000
        0.000000000000000
        0.000000000000000
        0.000000000000000
        0.000000000000000
        0.000000000000000
       -0.000872108250283
       -0.001056560847347
        0.000000000000000
        0.000000000000000
        0.000000000000000
        0.000000000000000
        0.000000000000000
        0.000000000000000
        0.000000000000000
       -0.000885757473870
       -0.001345409072821
       -0.000919123060626
        0.000000000000000
        0.000000000000000
        0.000000000000000
        0.000000000000000
        0.000000000000000
        0.000000000000000
        0.000000000000000
       -0.000748631811841
       -0.000667284480125
        0.000000000000000
        0.000000000000000
        0.000000000000000
        0.000000000000000
        0.000000000000000
        0.000000000000000
        0.000000000000000
        0.000000000000000
        0.000000000000000
        0.000000000000000
        0.000000000000000
        0.000000000000000
        0.000000000000000
        0.000000000000000
        0.000000000000000
        0.000000000000000
        0.000000000000000
        0.000000000000000
        0.000000000000000
        0.000000000000000
        0.000000000000000
        0.000000000000000
        0.000000000000000
        0.000000000000000
        0.000000000000000
        0.000000000000000
        0.000000000000000
        0.000000000000000
        0.000000000000000
        0.000000000000000
END_DATAGRID_3D
END_BLOCK_DATAGRID_3D
