ATOMS
         C    7.558905    7.558905    7.558905
         H    8.755769    8.755769    8.755769
         H    6.362040    6.362040    8.755769
         H    8.755769    6.362040    6.362040
         H    6.362040    8.755769    6.362040
BEGIN_BLOCK_DATAGRID_3D
units: coords = b, function = 1/hbar/H*b^-2
BEGIN_DATAGRID_3D_function
      9      9      9
0.0 0.0 0.0
   15.117809    0.000000    0.000000
    0.000000   15.117809    0.000000
    0.000000    0.000000   15.117809
        0.000000000000000
        0.000000000000000
        0.000000000000000
        0.000000000000000
        0.000000000000000
        0.000000000000000
        0.000000000000000
        0.000000000000000
        0.000000000000000
        0.000000000000000
        0.000000000000000
        0.000000000000000
        0.000000000000000
        0.000000000000000
        0.000000000000000
        0.000000000000000
        0.000000000000000
        0.000000000000000
        0.000000000000000
        0.000000000000000
        0.000000000000000
        0.000000000000000
        0.000000000000000
        0.000000000000000
        0.000000000000000
        0.000000000000000
        0.000000000000000
        0.000000000000000
        0.000000000000000
        0.000000000000000
        0.000000000000000
       -0.000000002040954
        0.000000001325877
        0.000000000000000
        0.000000000000000
        0.000000000000000
        0.000000000000000
        0.000000000000000
        0.000000000000000
       -0.000000001388492
       -0.000000000000956
        0.000000001385058
        0.000000000000000
        0.000000000000000
        0.000000000000000
        0.000000000000000
        0.000000000000000
        0.000000000000000
       -0.000000001328784
        0.000000002034665
        0.000000000000000
        0.000000000000000
        0.000000000000000
        0.000000000000000
        0.000000000000000
        0.000000000000000
        0.000000000000000
        0.000000000000000
        0.000000000000000
        0.000000000000000
        0.000000000000000
        0.000000000000000
        0.000000000000000
        0.000000000000000
        0.000000000000000
        0.000000000000000
        0.000000000000000
        0.000000000000000
        0.000000000000000
        0.000000000000000
        0.000000000000000
        0.000000000000000
        0.000000000000000
        0.000000000000000
        0.000000000000000
        0.000000000000000
        0.000000000000000
        0.000000000000000
        0.000000000000000
        0.000000000000000
        0.000000000000000
        0.000000000000000
        0.000000000000000
        0.000000000000000
        0.000000000000000
        0.000000000000000
        0.000000000000000
        0.000000000000000
        0.000000000000000
        0.000000000000000
        0.000000000000000
        0.000000000000000
        0.000000000000000
        0.000000000000000
       -0.000000001258818
        0.000000001157050
        0.000000000000000
        0.000000000000000
        0.000000000000000
        0.000000000000000
        0.000000000000000
        0.000000000000000
       -0.000000003643741
       -0.000000000785618
        0.000000000223963
        0.000000002626733
        0.000000000000000
        0.000000000000000
        0.000000000000000
        0.000000000000000
       -0.000000002760804
       -0.000000008008447
       -0.000000018411026
        0.000000013960435
        0.000000007811997
       -0.000000000235978
        0.000000000000000
        0.000000000000000
        0.000000000235349
       -0.000000005161205
       -0.000000032882531
       -0.000000000041497
        0.000000032952797
        0.000000005192914
       -0.000000000232643
        0.000000000000000
        0.000000000000000
        0.000000000237374
       -0.000000007768677
       -0.000000013968121
        0.000000018413488
        0.000000008029031
        0.000000002771938
        0.000000000000000
        0.000000000000000
        0.000000000000000
        0.000000000000000
       -0.000000002623896
       -0.000000000215824
        0.000000000785329
        0.000000003650627
        0.000000000000000
        0.000000000000000
        0.000000000000000
        0.000000000000000
        0.000000000000000
        0.000000000000000
       -0.000000001157914
        0.000000001259499
        0.000000000000000
        0.000000000000000
        0.000000000000000
        0.000000000000000
        0.000000000000000
        0.000000000000000
        0.000000000000000
        0.000000000000000
        0.000000000000000
        0.000000000000000
        0.000000000000000
        0.000000000000000
        0.000000000000000
        0.000000000000000
        0.000000000000000
        0.000000000000000
        0.000000000000000
        0.000000000000000
        0.000000000000000
        0.000000000000000
        0.000000000000000
        0.000000000000000
        0.000000000000000
        0.000000000000000
        0.000000000000000
       -0.000000002534624
       -0.000000002083665
        0.000000001434848
        0.000000001550280
        0.000000000000000
        0.000000000000000
        0.000000000000000
        0.000000000000000
       -0.000000005168698
        0.000000001798716
        0.000000016574893
       -0.000000016446727
       -0.000000008262664
        0.000000001077806
        0.000000000000000
        0.000000000000000
       -0.000000000339247
       -0.000000007448127
        0.000000205474560
        0.000000341741410
       -0.000000298323590
       -0.000000198285587
        0.000000009760452
        0.000000000000000
        0.000000000000000
       -0.000000007173623
        0.000000111791333
        0.000000809809701
        0.000000000628445
       -0.000000812268465
       -0.000000112700317
        0.000000007237271
        0.000000000000000
        0.000000000000000
       -0.000000009700851
        0.000000197099908
        0.000000299543560
       -0.000000341527626
       -0.000000206592064
        0.000000007394032
        0.000000000352039
        0.000000000000000
        0.000000000000000
       -0.000000001072064
        0.000000008187940
        0.000000016653148
       -0.000000016502730
       -0.000000001888176
        0.000000005184374
        0.000000000000000
        0.000000000000000
        0.000000000000000
        0.000000000000000
       -0.000000001551456
       -0.000000001430058
        0.000000002085490
        0.000000002535496
        0.000000000000000
        0.000000000000000
        0.000000000000000
        0.000000000000000
        0.000000000000000
        0.000000000000000
        0.000000000000000
        0.000000000000000
        0.000000000000000
        0.000000000000000
        0.000000000000000
        0.000000000000000
        0.000000000000000
        0.000000000000000
        0.000000000000000
        0.000000000000000
       -0.000000000771989
       -0.000000000005440
        0.000000000000000
        0.000000000000000
        0.000000000000000
        0.000000000000000
        0.000000000000000
       -0.000000001702085
       -0.000000004320213
        0.000000001066178
       -0.000000000837781
        0.000000002133947
       -0.000000000002646
        0.000000000000000
        0.000000000000000
       -0.000000000974853
       -0.000000001486928
        0.000000050726478
       -0.000000029241726
       -0.000000101952246
       -0.000000009233363
        0.000000000881181
        0.000000000000000
        0.000000000000000
       -0.000000012345525
        0.000000190196335
        0.000000579769761
       -0.000001002326960
       -0.000001851238456
       -0.000000164564204
        0.000000009084383
       -0.000000000067980
       -0.000000000392248
       -0.000000026747504
        0.000000669773255
        0.000002068394447
        0.000000017135005
       -0.000002083197837
       -0.000000673801380
        0.000000026869963
        0.000000000400346
        0.000000000067896
       -0.000000008994442
        0.000000163383936
        0.000001841730722
        0.000001009470338
       -0.000000581719850
       -0.000000191545327
        0.000000012412816
        0.000000000000000
        0.000000000000000
       -0.000000000865533
        0.000000009202795
        0.000000101463242
        0.000000029782479
       -0.000000050945740
        0.000000001413494
        0.000000000984201
        0.000000000000000
        0.000000000000000
        0.000000000002502
       -0.000000002127703
        0.000000000855911
       -0.000000001040271
        0.000000004320479
        0.000000001704791
        0.000000000000000
        0.000000000000000
        0.000000000000000
        0.000000000000000
        0.000000000000000
        0.000000000005894
        0.000000000770720
        0.000000000000000
        0.000000000000000
        0.000000000000000
        0.000000000000000
        0.000000000000000
        0.000000000000000
        0.000000000000000
       -0.000000000005894
       -0.000000002287428
       -0.000000000005440
        0.000000000000000
        0.000000000000000
        0.000000000000000
        0.000000000000000
       -0.000000000002502
       -0.000000003057434
        0.000000001266698
       -0.000000000726970
        0.000000001276126
       -0.000000003052998
       -0.000000000002646
        0.000000000000000
        0.000000000000000
       -0.000000002293319
        0.000000018634905
       -0.000000037396735
       -0.000000102736236
       -0.000000038029109
        0.000000018825904
       -0.000000002300820
        0.000000000000000
       -0.000000000067896
       -0.000000017154446
        0.000000308787754
       -0.000000953081375
       -0.000002428192283
       -0.000000962470173
        0.000000310536807
       -0.000000017184931
       -0.000000000067980
       -0.000000000000000
        0.000000000000000
        0.000000000000000
       -0.000000000000000
        0.000000000000000
       -0.000000000000000
       -0.000000000000000
        0.000000000000000
        0.000000000000000
        0.000000000067896
        0.000000017154446
       -0.000000308787754
        0.000000953081375
        0.000002428192283
        0.000000962470173
       -0.000000310536807
        0.000000017184931
        0.000000000067980
        0.000000000000000
        0.000000002293319
       -0.000000018634905
        0.000000037396735
        0.000000102736236
        0.000000038029109
       -0.000000018825904
        0.000000002300820
        0.000000000000000
        0.000000000000000
        0.000000000002502
        0.000000003057434
       -0.000000001266698
        0.000000000726970
       -0.000000001276126
        0.000000003052998
        0.000000000002646
        0.000000000000000
        0.000000000000000
        0.000000000000000
        0.000000000000000
        0.000000000005894
        0.000000002287428
        0.000000000005440
        0.000000000000000
        0.000000000000000
        0.000000000000000
        0.000000000000000
        0.000000000000000
        0.000000000000000
       -0.000000000005894
       -0.000000000770720
        0.000000000000000
        0.000000000000000
        0.000000000000000
        0.000000000000000
        0.000000000000000
       -0.000000000002502
        0.000000002127703
       -0.000000000855911
        0.000000001040271
       -0.000000004320479
       -0.000000001704791
        0.000000000000000
        0.000000000000000
        0.000000000000000
        0.000000000865533
       -0.000000009202795
       -0.000000101463242
       -0.000000029782479
        0.000000050945740
       -0.000000001413494
       -0.000000000984201
        0.000000000000000
       -0.000000000067896
        0.000000008994442
       -0.000000163383936
       -0.000001841730722
       -0.000001009470338
        0.000000581719850
        0.000000191545327
       -0.000000012412816
        0.000000000000000
        0.000000000392248
        0.000000026747504
       -0.000000669773255
       -0.000002068394447
       -0.000000017135005
        0.000002083197837
        0.000000673801380
       -0.000000026869963
       -0.000000000400346
        0.000000000000000
        0.000000012345525
       -0.000000190196335
       -0.000000579769761
        0.000001002326960
        0.000001851238456
        0.000000164564204
       -0.000000009084383
        0.000000000067980
        0.000000000000000
        0.000000000974853
        0.000000001486928
       -0.000000050726478
        0.000000029241726
        0.000000101952246
        0.000000009233363
       -0.000000000881181
        0.000000000000000
        0.000000000000000
        0.000000000000000
        0.000000001702085
        0.000000004320213
       -0.000000001066178
        0.000000000837781
       -0.000000002133947
        0.000000000002646
        0.000000000000000
        0.000000000000000
        0.000000000000000
        0.000000000000000
        0.000000000000000
        0.000000000771989
        0.000000000005440
        0.000000000000000
        0.000000000000000
        0.000000000000000
        0.000000000000000
        0.000000000000000
        0.000000000000000
        0.000000000000000
        0.000000000000000
        0.000000000000000
        0.000000000000000
        0.000000000000000
        0.000000000000000
        0.000000000000000
        0.000000000000000
        0.000000001551456
        0.000000001430058
       -0.000000002085490
       -0.000000002535496
        0.000000000000000
        0.000000000000000
        0.000000000000000
        0.000000000000000
        0.000000001072064
       -0.000000008187940
       -0.000000016653148
        0.000000016502730
        0.000000001888176
       -0.000000005184374
        0.000000000000000
        0.000000000000000
        0.000000000000000
        0.000000009700851
       -0.000000197099908
       -0.000000299543560
        0.000000341527626
        0.000000206592064
       -0.000000007394032
       -0.000000000352039
        0.000000000000000
        0.000000000000000
        0.000000007173623
       -0.000000111791333
       -0.000000809809701
       -0.000000000628445
        0.000000812268465
        0.000000112700317
       -0.000000007237271
        0.000000000000000
        0.000000000000000
        0.000000000339247
        0.000000007448127
       -0.000000205474560
       -0.000000341741410
        0.000000298323590
        0.000000198285587
       -0.000000009760452
        0.000000000000000
        0.000000000000000
        0.000000000000000
        0.000000005168698
       -0.000000001798716
       -0.000000016574893
        0.000000016446727
        0.000000008262664
       -0.000000001077806
        0.000000000000000
        0.000000000000000
        0.000000000000000
        0.000000000000000
        0.000000002534624
        0.000000002083665
       -0.000000001434848
       -0.000000001550280
        0.000000000000000
        0.000000000000000
        0.000000000000000
        0.000000000000000
        0.000000000000000
        0.000000000000000
        0.000000000000000
        0.000000000000000
        0.000000000000000
        0.000000000000000
        0.000000000000000
        0.000000000000000
        0.000000000000000
        0.000000000000000
        0.000000000000000
        0.000000000000000
        0.000000000000000
        0.000000000000000
        0.000000000000000
        0.000000000000000
        0.000000000000000
        0.000000000000000
        0.000000000000000
        0.000000001157914
       -0.000000001259499
        0.000000000000000
        0.000000000000000
        0.000000000000000
        0.000000000000000
        0.000000000000000
        0.000000000000000
        0.000000002623896
        0.000000000215824
       -0.000000000785329
       -0.000000003650627
        0.000000000000000
        0.000000000000000
        0.000000000000000
        0.000000000000000
       -0.000000000237374
        0.000000007768677
        0.000000013968121
       -0.000000018413488
       -0.000000008029031
       -0.000000002771938
        0.000000000000000
        0.000000000000000
        0.000000000000000
       -0.000000000235349
        0.000000005161205
        0.000000032882531
        0.000000000041497
       -0.000000032952797
       -0.000000005192914
        0.000000000232643
        0.000000000000000
        0.000000000000000
        0.000000000000000
        0.000000002760804
        0.000000008008447
        0.000000018411026
       -0.000000013960435
       -0.000000007811997
        0.000000000235978
        0.000000000000000
        0.000000000000000
        0.000000000000000
        0.000000000000000
        0.000000003643741
        0.000000000785618
       -0.000000000223963
       -0.000000002626733
        0.000000000000000
        0.000000000000000
        0.000000000000000
        0.000000000000000
        0.000000000000000
        0.000000000000000
        0.000000001258818
       -0.000000001157050
        0.000000000000000
        0.000000000000000
        0.000000000000000
        0.000000000000000
        0.000000000000000
        0.000000000000000
        0.000000000000000
        0.000000000000000
        0.000000000000000
        0.000000000000000
        0.000000000000000
        0.000000000000000
        0.000000000000000
        0.000000000000000
        0.000000000000000
        0.000000000000000
        0.000000000000000
        0.000000000000000
        0.000000000000000
        0.000000000000000
        0.000000000000000
        0.000000000000000
        0.000000000000000
        0.000000000000000
        0.000000000000000
        0.000000000000000
        0.000000000000000
        0.000000000000000
        0.000000000000000
        0.000000000000000
        0.000000000000000
        0.000000000000000
        0.000000000000000
        0.000000000000000
        0.000000000000000
        0.000000000000000
        0.000000000000000
        0.000000000000000
        0.000000000000000
        0.000000000000000
        0.000000000000000
        0.000000000000000
        0.000000001328784
       -0.000000002034665
        0.000000000000000
        0.000000000000000
        0.000000000000000
        0.000000000000000
        0.000000000000000
        0.000000000000000
        0.000000000000000
        0.000000001388492
        0.000000000000956
       -0.000000001385058
        0.000000000000000
        0.000000000000000
        0.000000000000000
        0.000000000000000
        0.000000000000000
        0.000000000000000
        0.000000000000000
        0.000000002040954
       -0.000000001325877
        0.000000000000000
        0.000000000000000
        0.000000000000000
        0.000000000000000
        0.000000000000000
        0.000000000000000
        0.000000000000000
        0.000000000000000
        0.000000000000000
        0.000000000000000
        0.000000000000000
        0.000000000000000
        0.000000000000000
        0.000000000000000
        0.000000000000000
        0.000000000000000
        0.000000000000000
        0.000000000000000
        0.000000000000000
        0.000000000000000
        0.000000000000000
        0.000000000000000
        0.000000000000000
        0.000000000000000
        0.000000000000000
        0.000000000000000
        0.000000000000000
        0.000000000000000
        0.000000000000000
        0.000000000000000
END_DATAGRID_3D
END_BLOCK_DATAGRID_3D
