ATOMS
         C    7.558905    7.558905    7.558905
         H    8.755769    8.755769    8.755769
         H    6.362040    6.362040    8.755769
         H    8.755769    6.362040    6.362040
         H    6.362040    8.755769    6.362040
BEGIN_BLOCK_DATAGRID_3D
units: coords = b, function = sqrt(b^-3)
BEGIN_DATAGRID_3D_function
      9      9      9
0.0 0.0 0.0
   15.117809    0.000000    0.000000
    0.000000   15.117809    0.000000
    0.000000    0.000000   15.117809
        0.000000000000000
        0.000000000000000
        0.000000000000000
        0.000000000000000
        0.000000000000000
        0.000000000000000
        0.000000000000000
        0.000000000000000
        0.000000000000000
        0.000000000000000
        0.000000000000000
        0.000000000000000
        0.000000000000000
        0.000000000000000
        0.000000000000000
        0.000000000000000
        0.000000000000000
        0.000000000000000
        0.000000000000000
        0.000000000000000
        0.000000000000000
        0.000000000000000
        0.000000000000000
        0.000000000000000
        0.000000000000000
        0.000000000000000
        0.000000000000000
        0.000000000000000
        0.000000000000000
        0.000000000000000
        0.000000000000000
       -0.001113608643642
       -0.001076314472230
        0.000000000000000
        0.000000000000000
        0.000000000000000
        0.000000000000000
        0.000000000000000
        0.000000000000000
       -0.000667634018188
       -0.001299173450611
       -0.001074864616007
        0.000000000000000
        0.000000000000000
        0.000000000000000
        0.000000000000000
        0.000000000000000
        0.000000000000000
       -0.000409006486985
       -0.000629293126795
        0.000000000000000
        0.000000000000000
        0.000000000000000
        0.000000000000000
        0.000000000000000
        0.000000000000000
        0.000000000000000
        0.000000000000000
        0.000000000000000
        0.000000000000000
        0.000000000000000
        0.000000000000000
        0.000000000000000
        0.000000000000000
        0.000000000000000
        0.000000000000000
        0.000000000000000
        0.000000000000000
        0.000000000000000
        0.000000000000000
        0.000000000000000
        0.000000000000000
        0.000000000000000
        0.000000000000000
        0.000000000000000
        0.000000000000000
        0.000000000000000
        0.000000000000000
        0.000000000000000
        0.000000000000000
        0.000000000000000
        0.000000000000000
        0.000000000000000
        0.000000000000000
        0.000000000000000
        0.000000000000000
        0.000000000000000
        0.000000000000000
        0.000000000000000
        0.000000000000000
        0.000000000000000
        0.000000000000000
        0.000000000000000
        0.000000000000000
       -0.001166643551142
       -0.001170722956364
        0.000000000000000
        0.000000000000000
        0.000000000000000
        0.000000000000000
        0.000000000000000
        0.000000000000000
       -0.001993935223039
       -0.003943287141944
       -0.003934208171458
       -0.001986248369531
        0.000000000000000
        0.000000000000000
        0.000000000000000
        0.000000000000000
       -0.001070263226968
       -0.003930913928331
       -0.007490940257454
       -0.007296052621049
       -0.003788785187409
       -0.001090458706778
        0.000000000000000
        0.000000000000000
       -0.000101964918209
       -0.001041125699467
       -0.003955016638737
       -0.007538854080648
       -0.007085841464852
       -0.003591076805226
       -0.001038600909252
        0.000000000000000
        0.000000000000000
        0.000023260027235
       -0.000280738997968
       -0.001677133611088
       -0.003555891400728
       -0.003374085768501
       -0.001673829569848
        0.000000000000000
        0.000000000000000
        0.000000000000000
        0.000000000000000
        0.000099483344806
       -0.000141393180613
       -0.000698428885939
       -0.000754230524816
        0.000000000000000
        0.000000000000000
        0.000000000000000
        0.000000000000000
        0.000000000000000
        0.000000000000000
        0.000099282787558
        0.000021465871626
        0.000000000000000
        0.000000000000000
        0.000000000000000
        0.000000000000000
        0.000000000000000
        0.000000000000000
        0.000000000000000
        0.000000000000000
        0.000000000000000
        0.000000000000000
        0.000000000000000
        0.000000000000000
        0.000000000000000
        0.000000000000000
        0.000000000000000
        0.000000000000000
        0.000000000000000
        0.000000000000000
        0.000000000000000
        0.000000000000000
        0.000000000000000
        0.000000000000000
        0.000000000000000
        0.000000000000000
        0.000000000000000
       -0.001931260348865
       -0.003853727116483
       -0.003867796374613
       -0.001958308619748
        0.000000000000000
        0.000000000000000
        0.000000000000000
        0.000000000000000
       -0.001714297809629
       -0.006995609407809
       -0.014497813209328
       -0.014715882139813
       -0.007165321153983
       -0.001886043736728
        0.000000000000000
        0.000000000000000
       -0.000232584053758
       -0.002960159457836
       -0.013832083425939
       -0.033265229237143
       -0.033399378705225
       -0.014065873562230
       -0.003553284184100
        0.000000000000000
        0.000000000000000
        0.000158681928976
       -0.001682455714594
       -0.012728933134286
       -0.034517199881286
       -0.030681495571674
       -0.012771561403315
       -0.003276897332155
        0.000000000000000
        0.000000000000000
        0.000611624796668
        0.001148529329805
       -0.001281338684622
       -0.010172179494826
       -0.010796725808474
       -0.005340387915438
       -0.001455617988557
        0.000000000000000
        0.000000000000000
        0.000475986059386
        0.001374300920499
        0.001779949322146
        0.000008669832374
       -0.001322224900086
       -0.000933078037131
        0.000000000000000
        0.000000000000000
        0.000000000000000
        0.000000000000000
        0.000544135103259
        0.000911975929673
        0.000716765895727
        0.000233161862527
        0.000000000000000
        0.000000000000000
        0.000000000000000
        0.000000000000000
        0.000000000000000
        0.000000000000000
        0.000000000000000
        0.000000000000000
        0.000000000000000
        0.000000000000000
        0.000000000000000
        0.000000000000000
        0.000000000000000
        0.000000000000000
        0.000000000000000
        0.000000000000000
       -0.001035736865911
       -0.001015034817274
        0.000000000000000
        0.000000000000000
        0.000000000000000
        0.000000000000000
        0.000000000000000
       -0.000932326085192
       -0.003606347100330
       -0.007056724375394
       -0.006989939888612
       -0.003666188242352
       -0.001059662894207
        0.000000000000000
        0.000000000000000
       -0.000157304820010
       -0.002632220856497
       -0.012975797230863
       -0.032029205068261
       -0.032635105348145
       -0.013809365236263
       -0.003497087818107
        0.000000000000000
        0.000000000000000
        0.000401771598714
       -0.002412301131552
       -0.026089188388162
       -0.093885694765893
       -0.099209914090970
       -0.030734399198117
       -0.006214903166946
       -0.000859350922880
        0.000376442960928
        0.001857557864288
        0.003791816601426
       -0.013545517134713
       -0.091558058558369
       -0.081860076389370
       -0.026391289455177
       -0.005567451015327
       -0.000801214617454
        0.000413881463141
        0.002432777360695
        0.008960510069282
        0.018964291875989
       -0.001611134002904
       -0.014261452011840
       -0.007838353130653
       -0.002249235717015
        0.000000000000000
        0.000000000000000
        0.001509722771209
        0.005230079395120
        0.010832213436918
        0.009356966551865
        0.002688847959675
       -0.000195738413365
       -0.000279307429924
        0.000000000000000
        0.000000000000000
        0.000515405745236
        0.001670940443859
        0.003177379566065
        0.003305156938475
        0.001735273367141
        0.000490222381992
        0.000000000000000
        0.000000000000000
        0.000000000000000
        0.000000000000000
        0.000000000000000
        0.000562114460045
        0.000602729591149
        0.000000000000000
        0.000000000000000
        0.000000000000000
        0.000000000000000
        0.000000000000000
        0.000000000000000
        0.000000000000000
       -0.000553296129564
       -0.001144460553364
       -0.000981620109952
        0.000000000000000
        0.000000000000000
        0.000000000000000
        0.000000000000000
       -0.000015161135952
       -0.000714950169761
       -0.003232424992634
       -0.006641093023490
       -0.006492661404365
       -0.003364098720249
       -0.000988767230535
        0.000000000000000
        0.000000000000000
        0.000395383580234
       -0.000640387264855
       -0.009823381375440
       -0.030406208501861
       -0.028411957971173
       -0.012086726193505
       -0.003139432705555
        0.000000000000000
        0.000412942994123
        0.002146224797031
        0.005461303586177
       -0.007029202000078
       -0.080652300390599
       -0.076994511569973
       -0.025357708338866
       -0.005408406594474
       -0.000785855350437
        0.000771637888695
        0.004467697915315
        0.020395220780343
        0.054081367842560
        0.000002705022558
       -0.053827700939487
       -0.020280615084080
       -0.004414554604532
       -0.000758885905415
        0.000621900618571
        0.004400684592915
        0.020217221135577
        0.063469886430934
        0.080725184346877
        0.020841268048591
       -0.000157835091195
       -0.001060492525661
       -0.000232674949128
        0.000000000000000
        0.002355442886129
        0.009212010103153
        0.023227450263102
        0.030427362987726
        0.015082011989947
        0.003581385222599
        0.000420735813791
        0.000000000000000
        0.000000000000000
        0.000694112793481
        0.002571707521886
        0.005450804552785
        0.006644128934641
        0.004287603537617
        0.001523461757434
        0.000317655456500
        0.000000000000000
        0.000000000000000
        0.000000000000000
        0.000000000000000
        0.000809691210674
        0.001144877477774
        0.000726423595369
        0.000000000000000
        0.000000000000000
        0.000000000000000
        0.000000000000000
        0.000000000000000
        0.000000000000000
       -0.000293229837501
       -0.000499582682830
        0.000000000000000
        0.000000000000000
        0.000000000000000
        0.000000000000000
        0.000000000000000
        0.000120632651222
        0.000083788949636
       -0.000912461995353
       -0.002674526987701
       -0.002829195877353
       -0.001484910078738
        0.000000000000000
        0.000000000000000
        0.000000000000000
        0.000909888699861
        0.002439679722366
        0.002096472789283
       -0.006233547846647
       -0.008721577428788
       -0.004679979962329
       -0.001329327574511
        0.000000000000000
        0.000468502848172
        0.002891884765086
        0.011573526515933
        0.028561402563206
        0.009770837676582
       -0.009458467361599
       -0.006619319853475
       -0.002028671580235
        0.000000000000000
        0.000658400651766
        0.004689351525659
        0.021886708120328
        0.069986201565569
        0.091630942514647
        0.025706832867987
        0.000875746025115
       -0.000901448104807
       -0.000217315682111
        0.000000000000000
        0.003926517240255
        0.016976753903458
        0.049943171709060
        0.085834028833260
        0.051923316375552
        0.010330946483432
        0.000954093513090
       -0.000009137533436
        0.000000000000000
        0.001784492688167
        0.007548526780608
        0.019046836388232
        0.028934558131544
        0.019774423675722
        0.006197846098212
        0.001105862263936
        0.000000000000000
        0.000000000000000
        0.000000000000000
        0.001935118885585
        0.004707752840611
        0.006430871567318
        0.004737780462188
        0.001926617541341
        0.000430988232574
        0.000000000000000
        0.000000000000000
        0.000000000000000
        0.000000000000000
        0.000000000000000
        0.000933066068059
        0.000747314378521
        0.000000000000000
        0.000000000000000
        0.000000000000000
        0.000000000000000
        0.000000000000000
        0.000000000000000
        0.000000000000000
        0.000000000000000
        0.000000000000000
        0.000000000000000
        0.000000000000000
        0.000000000000000
        0.000000000000000
        0.000000000000000
        0.000297709611696
        0.000279128462643
       -0.000235114779475
       -0.000490143334065
        0.000000000000000
        0.000000000000000
        0.000000000000000
        0.000000000000000
        0.000646382936267
        0.002070173705045
        0.003327313503565
        0.001734833033351
       -0.000334199605681
       -0.000619147056826
        0.000000000000000
        0.000000000000000
        0.000000000000000
        0.001807986674402
        0.006521229787681
        0.014210024910824
        0.013295598200044
        0.004763996339361
        0.000464669539744
       -0.000153017015879
        0.000000000000000
        0.000000000000000
        0.002592144537387
        0.010254078552891
        0.026133002021948
        0.034538354367150
        0.017351549590448
        0.004266220432409
        0.000558200440391
        0.000000000000000
        0.000000000000000
        0.001859771921915
        0.007876465381946
        0.019903122583308
        0.030170582300427
        0.020538697032802
        0.006454354424179
        0.001162058629929
        0.000000000000000
        0.000000000000000
        0.000000000000000
        0.003279011118736
        0.008664078716674
        0.012764275645365
        0.009636044389017
        0.003748933755980
        0.000776584650125
        0.000000000000000
        0.000000000000000
        0.000000000000000
        0.000000000000000
        0.002190017036682
        0.003374255774952
        0.002683159227734
        0.001123140706871
        0.000000000000000
        0.000000000000000
        0.000000000000000
        0.000000000000000
        0.000000000000000
        0.000000000000000
        0.000000000000000
        0.000000000000000
        0.000000000000000
        0.000000000000000
        0.000000000000000
        0.000000000000000
        0.000000000000000
        0.000000000000000
        0.000000000000000
        0.000000000000000
        0.000000000000000
        0.000000000000000
        0.000000000000000
        0.000000000000000
        0.000000000000000
        0.000000000000000
        0.000000000000000
        0.000227311923919
        0.000158007200813
        0.000000000000000
        0.000000000000000
        0.000000000000000
        0.000000000000000
        0.000000000000000
        0.000000000000000
        0.000742361370148
        0.001332497572929
        0.001180080002191
        0.000497249053277
        0.000000000000000
        0.000000000000000
        0.000000000000000
        0.000000000000000
        0.000612778369223
        0.002035468391462
        0.003942051181800
        0.004186521351503
        0.002280163258290
        0.000679141873103
        0.000000000000000
        0.000000000000000
        0.000000000000000
        0.000780916575738
        0.002897883051592
        0.006173396198889
        0.007541889991799
        0.004880783598103
        0.001750439842411
        0.000367489135217
        0.000000000000000
        0.000000000000000
        0.000000000000000
        0.002073056027361
        0.005032319668611
        0.006865087449378
        0.005043893194625
        0.002049214486398
        0.000461784045144
        0.000000000000000
        0.000000000000000
        0.000000000000000
        0.000000000000000
        0.002252691910855
        0.003463815800412
        0.002749571024579
        0.001151080456655
        0.000000000000000
        0.000000000000000
        0.000000000000000
        0.000000000000000
        0.000000000000000
        0.000000000000000
        0.000987731569425
        0.000845510430888
        0.000000000000000
        0.000000000000000
        0.000000000000000
        0.000000000000000
        0.000000000000000
        0.000000000000000
        0.000000000000000
        0.000000000000000
        0.000000000000000
        0.000000000000000
        0.000000000000000
        0.000000000000000
        0.000000000000000
        0.000000000000000
        0.000000000000000
        0.000000000000000
        0.000000000000000
        0.000000000000000
        0.000000000000000
        0.000000000000000
        0.000000000000000
        0.000000000000000
        0.000000000000000
        0.000000000000000
        0.000000000000000
        0.000000000000000
        0.000000000000000
        0.000000000000000
        0.000000000000000
        0.000000000000000
        0.000000000000000
        0.000000000000000
        0.000000000000000
        0.000000000000000
        0.000000000000000
        0.000000000000000
        0.000000000000000
        0.000000000000000
        0.000000000000000
        0.000000000000000
        0.000000000000000
        0.000000000000000
        0.000677891109528
        0.000732440035114
        0.000000000000000
        0.000000000000000
        0.000000000000000
        0.000000000000000
        0.000000000000000
        0.000000000000000
        0.000000000000000
        0.000924029099298
        0.001299590375020
        0.000819668101424
        0.000000000000000
        0.000000000000000
        0.000000000000000
        0.000000000000000
        0.000000000000000
        0.000000000000000
        0.000000000000000
        0.001010937845790
        0.000808594033477
        0.000000000000000
        0.000000000000000
        0.000000000000000
        0.000000000000000
        0.000000000000000
        0.000000000000000
        0.000000000000000
        0.000000000000000
        0.000000000000000
        0.000000000000000
        0.000000000000000
        0.000000000000000
        0.000000000000000
        0.000000000000000
        0.000000000000000
        0.000000000000000
        0.000000000000000
        0.000000000000000
        0.000000000000000
        0.000000000000000
        0.000000000000000
        0.000000000000000
        0.000000000000000
        0.000000000000000
        0.000000000000000
        0.000000000000000
        0.000000000000000
        0.000000000000000
        0.000000000000000
        0.000000000000000
END_DATAGRID_3D
END_BLOCK_DATAGRID_3D
