ATOMS
         C    7.558905    7.558905    7.558905
         H    8.755769    8.755769    8.755769
         H    6.362040    6.362040    8.755769
         H    8.755769    6.362040    6.362040
         H    6.362040    8.755769    6.362040
BEGIN_BLOCK_DATAGRID_3D
units: coords = b, function = 1/hbar/H*b^-2
BEGIN_DATAGRID_3D_function
      9      9      9
0.0 0.0 0.0
   15.117809    0.000000    0.000000
    0.000000   15.117809    0.000000
    0.000000    0.000000   15.117809
        0.000000000000000
        0.000000000000000
        0.000000000000000
        0.000000000000000
        0.000000000000000
        0.000000000000000
        0.000000000000000
        0.000000000000000
        0.000000000000000
        0.000000000000000
        0.000000000000000
        0.000000000000000
        0.000000000000000
        0.000000000000000
        0.000000000000000
        0.000000000000000
        0.000000000000000
        0.000000000000000
        0.000000000000000
        0.000000000000000
        0.000000000000000
        0.000000000000000
        0.000000000000000
        0.000000000000000
        0.000000000000000
        0.000000000000000
        0.000000000000000
        0.000000000000000
        0.000000000000000
        0.000000000000000
        0.000000000000000
       -0.000000000063972
        0.000000000043716
        0.000000000000000
        0.000000000000000
        0.000000000000000
        0.000000000000000
        0.000000000000000
        0.000000000000000
       -0.000000000025550
       -0.000000000002862
        0.000000000025001
        0.000000000000000
        0.000000000000000
        0.000000000000000
        0.000000000000000
        0.000000000000000
        0.000000000000000
       -0.000000000045804
        0.000000000063424
        0.000000000000000
        0.000000000000000
        0.000000000000000
        0.000000000000000
        0.000000000000000
        0.000000000000000
        0.000000000000000
        0.000000000000000
        0.000000000000000
        0.000000000000000
        0.000000000000000
        0.000000000000000
        0.000000000000000
        0.000000000000000
        0.000000000000000
        0.000000000000000
        0.000000000000000
        0.000000000000000
        0.000000000000000
        0.000000000000000
        0.000000000000000
        0.000000000000000
        0.000000000000000
        0.000000000000000
        0.000000000000000
        0.000000000000000
        0.000000000000000
        0.000000000000000
        0.000000000000000
        0.000000000000000
        0.000000000000000
        0.000000000000000
        0.000000000000000
        0.000000000000000
        0.000000000000000
        0.000000000000000
        0.000000000000000
        0.000000000000000
        0.000000000000000
        0.000000000000000
        0.000000000000000
        0.000000000000000
        0.000000000000000
        0.000000000000000
       -0.000000000048479
        0.000000000046413
        0.000000000000000
        0.000000000000000
        0.000000000000000
        0.000000000000000
        0.000000000000000
        0.000000000000000
       -0.000000000128619
        0.000000000028964
       -0.000000000022859
        0.000000000081905
        0.000000000000000
        0.000000000000000
        0.000000000000000
        0.000000000000000
       -0.000000000076329
       -0.000000000241123
       -0.000000000655213
        0.000000000371922
        0.000000000342724
       -0.000000000025405
        0.000000000000000
        0.000000000000000
        0.000000000012165
       -0.000000000107156
       -0.000000001259075
        0.000000000030630
        0.000000001265978
        0.000000000113526
       -0.000000000010136
        0.000000000000000
        0.000000000000000
        0.000000000027431
       -0.000000000345777
       -0.000000000366846
        0.000000000661449
        0.000000000245993
        0.000000000073009
        0.000000000000000
        0.000000000000000
        0.000000000000000
        0.000000000000000
       -0.000000000078105
        0.000000000019498
       -0.000000000022545
        0.000000000125287
        0.000000000000000
        0.000000000000000
        0.000000000000000
        0.000000000000000
        0.000000000000000
        0.000000000000000
       -0.000000000044390
        0.000000000050465
        0.000000000000000
        0.000000000000000
        0.000000000000000
        0.000000000000000
        0.000000000000000
        0.000000000000000
        0.000000000000000
        0.000000000000000
        0.000000000000000
        0.000000000000000
        0.000000000000000
        0.000000000000000
        0.000000000000000
        0.000000000000000
        0.000000000000000
        0.000000000000000
        0.000000000000000
        0.000000000000000
        0.000000000000000
        0.000000000000000
        0.000000000000000
        0.000000000000000
        0.000000000000000
        0.000000000000000
        0.000000000000000
       -0.000000000089970
       -0.000000000049171
        0.000000000041647
        0.000000000048835
        0.000000000000000
        0.000000000000000
        0.000000000000000
        0.000000000000000
       -0.000000000171297
        0.000000000027711
        0.000000000260413
       -0.000000000465353
       -0.000000000080380
        0.000000000021597
        0.000000000000000
        0.000000000000000
        0.000000000019942
       -0.000000000423532
        0.000000005576506
        0.000000010363784
       -0.000000006912574
       -0.000000006374872
        0.000000000419239
        0.000000000000000
        0.000000000000000
       -0.000000000171225
        0.000000002348248
        0.000000024543361
       -0.000000000614415
       -0.000000024652453
       -0.000000002358143
        0.000000000177822
        0.000000000000000
        0.000000000000000
       -0.000000000420342
        0.000000006411009
        0.000000007262133
       -0.000000010448312
       -0.000000005603763
        0.000000000426563
       -0.000000000022725
        0.000000000000000
        0.000000000000000
       -0.000000000019716
        0.000000000072604
        0.000000000513553
       -0.000000000267848
       -0.000000000026192
        0.000000000160927
        0.000000000000000
        0.000000000000000
        0.000000000000000
        0.000000000000000
       -0.000000000047130
       -0.000000000044132
        0.000000000055092
        0.000000000087004
        0.000000000000000
        0.000000000000000
        0.000000000000000
        0.000000000000000
        0.000000000000000
        0.000000000000000
        0.000000000000000
        0.000000000000000
        0.000000000000000
        0.000000000000000
        0.000000000000000
        0.000000000000000
        0.000000000000000
        0.000000000000000
        0.000000000000000
        0.000000000000000
       -0.000000000025244
        0.000000000002071
        0.000000000000000
        0.000000000000000
        0.000000000000000
        0.000000000000000
        0.000000000000000
       -0.000000000056723
       -0.000000000120021
        0.000000000067357
       -0.000000000073973
        0.000000000073914
       -0.000000000000293
        0.000000000000000
        0.000000000000000
       -0.000000000022162
       -0.000000000096761
        0.000000001113271
       -0.000000000680594
       -0.000000001970079
       -0.000000000314496
        0.000000000022298
        0.000000000000000
        0.000000000000000
       -0.000000000386257
        0.000000004952877
        0.000000017857020
       -0.000000029524033
       -0.000000056771486
       -0.000000003572684
        0.000000000273771
        0.000000000002823
        0.000000000005224
       -0.000000001227018
        0.000000020955173
        0.000000101006994
       -0.000000002262155
       -0.000000102441938
       -0.000000020961785
        0.000000001237942
       -0.000000000004290
       -0.000000000002873
       -0.000000000265028
        0.000000003634027
        0.000000055802547
        0.000000028259663
       -0.000000018083837
       -0.000000004955416
        0.000000000387693
        0.000000000000000
        0.000000000000000
       -0.000000000021129
        0.000000000332529
        0.000000002026706
        0.000000000714526
       -0.000000001108671
        0.000000000093878
        0.000000000020094
        0.000000000000000
        0.000000000000000
        0.000000000000081
       -0.000000000072956
        0.000000000081645
       -0.000000000061175
        0.000000000120086
        0.000000000054495
        0.000000000000000
        0.000000000000000
        0.000000000000000
        0.000000000000000
        0.000000000000000
       -0.000000000002121
        0.000000000026187
        0.000000000000000
        0.000000000000000
        0.000000000000000
        0.000000000000000
        0.000000000000000
        0.000000000000000
        0.000000000000000
        0.000000000002121
       -0.000000000076120
        0.000000000002071
        0.000000000000000
        0.000000000000000
        0.000000000000000
        0.000000000000000
       -0.000000000000081
       -0.000000000092115
        0.000000000050028
       -0.000000000053305
        0.000000000059660
       -0.000000000090441
       -0.000000000000293
        0.000000000000000
        0.000000000000000
       -0.000000000042857
        0.000000000272809
       -0.000000000728160
       -0.000000001898782
       -0.000000000738621
        0.000000000289836
       -0.000000000041501
        0.000000000000000
        0.000000000002873
       -0.000000000791542
        0.000000010776590
       -0.000000030243255
       -0.000000072324916
       -0.000000031286082
        0.000000010795290
       -0.000000000783548
        0.000000000002823
       -0.000000000000000
       -0.000000000000000
       -0.000000000000000
        0.000000000000000
       -0.000000000000000
       -0.000000000000000
        0.000000000000000
        0.000000000000000
       -0.000000000000000
       -0.000000000002873
        0.000000000791542
       -0.000000010776590
        0.000000030243255
        0.000000072324916
        0.000000031286082
       -0.000000010795290
        0.000000000783548
       -0.000000000002823
        0.000000000000000
        0.000000000042857
       -0.000000000272809
        0.000000000728160
        0.000000001898782
        0.000000000738621
       -0.000000000289836
        0.000000000041501
        0.000000000000000
        0.000000000000000
        0.000000000000081
        0.000000000092115
       -0.000000000050028
        0.000000000053305
       -0.000000000059660
        0.000000000090441
        0.000000000000293
        0.000000000000000
        0.000000000000000
        0.000000000000000
        0.000000000000000
       -0.000000000002121
        0.000000000076120
       -0.000000000002071
        0.000000000000000
        0.000000000000000
        0.000000000000000
        0.000000000000000
        0.000000000000000
        0.000000000000000
        0.000000000002121
       -0.000000000026187
        0.000000000000000
        0.000000000000000
        0.000000000000000
        0.000000000000000
        0.000000000000000
       -0.000000000000081
        0.000000000072956
       -0.000000000081645
        0.000000000061175
       -0.000000000120086
       -0.000000000054495
        0.000000000000000
        0.000000000000000
        0.000000000000000
        0.000000000021129
       -0.000000000332529
       -0.000000002026706
       -0.000000000714526
        0.000000001108671
       -0.000000000093878
       -0.000000000020094
        0.000000000000000
        0.000000000002873
        0.000000000265028
       -0.000000003634027
       -0.000000055802547
       -0.000000028259663
        0.000000018083837
        0.000000004955416
       -0.000000000387693
        0.000000000000000
       -0.000000000005224
        0.000000001227018
       -0.000000020955173
       -0.000000101006994
        0.000000002262155
        0.000000102441938
        0.000000020961785
       -0.000000001237942
        0.000000000004290
        0.000000000000000
        0.000000000386257
       -0.000000004952877
       -0.000000017857020
        0.000000029524033
        0.000000056771486
        0.000000003572684
       -0.000000000273771
       -0.000000000002823
        0.000000000000000
        0.000000000022162
        0.000000000096761
       -0.000000001113271
        0.000000000680594
        0.000000001970079
        0.000000000314496
       -0.000000000022298
        0.000000000000000
        0.000000000000000
        0.000000000000000
        0.000000000056723
        0.000000000120021
       -0.000000000067357
        0.000000000073973
       -0.000000000073914
        0.000000000000293
        0.000000000000000
        0.000000000000000
        0.000000000000000
        0.000000000000000
        0.000000000000000
        0.000000000025244
       -0.000000000002071
        0.000000000000000
        0.000000000000000
        0.000000000000000
        0.000000000000000
        0.000000000000000
        0.000000000000000
        0.000000000000000
        0.000000000000000
        0.000000000000000
        0.000000000000000
        0.000000000000000
        0.000000000000000
        0.000000000000000
        0.000000000000000
        0.000000000047130
        0.000000000044132
       -0.000000000055092
       -0.000000000087004
        0.000000000000000
        0.000000000000000
        0.000000000000000
        0.000000000000000
        0.000000000019716
       -0.000000000072604
       -0.000000000513553
        0.000000000267848
        0.000000000026192
       -0.000000000160927
        0.000000000000000
        0.000000000000000
        0.000000000000000
        0.000000000420342
       -0.000000006411009
       -0.000000007262133
        0.000000010448312
        0.000000005603763
       -0.000000000426563
        0.000000000022725
        0.000000000000000
        0.000000000000000
        0.000000000171225
       -0.000000002348248
       -0.000000024543361
        0.000000000614416
        0.000000024652453
        0.000000002358143
       -0.000000000177822
        0.000000000000000
        0.000000000000000
       -0.000000000019942
        0.000000000423532
       -0.000000005576506
       -0.000000010363784
        0.000000006912574
        0.000000006374872
       -0.000000000419239
        0.000000000000000
        0.000000000000000
        0.000000000000000
        0.000000000171297
       -0.000000000027711
       -0.000000000260413
        0.000000000465353
        0.000000000080380
       -0.000000000021597
        0.000000000000000
        0.000000000000000
        0.000000000000000
        0.000000000000000
        0.000000000089970
        0.000000000049171
       -0.000000000041647
       -0.000000000048835
        0.000000000000000
        0.000000000000000
        0.000000000000000
        0.000000000000000
        0.000000000000000
        0.000000000000000
        0.000000000000000
        0.000000000000000
        0.000000000000000
        0.000000000000000
        0.000000000000000
        0.000000000000000
        0.000000000000000
        0.000000000000000
        0.000000000000000
        0.000000000000000
        0.000000000000000
        0.000000000000000
        0.000000000000000
        0.000000000000000
        0.000000000000000
        0.000000000000000
        0.000000000000000
        0.000000000044390
       -0.000000000050465
        0.000000000000000
        0.000000000000000
        0.000000000000000
        0.000000000000000
        0.000000000000000
        0.000000000000000
        0.000000000078105
       -0.000000000019498
        0.000000000022545
       -0.000000000125287
        0.000000000000000
        0.000000000000000
        0.000000000000000
        0.000000000000000
       -0.000000000027431
        0.000000000345777
        0.000000000366846
       -0.000000000661449
       -0.000000000245993
       -0.000000000073009
        0.000000000000000
        0.000000000000000
        0.000000000000000
       -0.000000000012165
        0.000000000107156
        0.000000001259075
       -0.000000000030630
       -0.000000001265978
       -0.000000000113526
        0.000000000010136
        0.000000000000000
        0.000000000000000
        0.000000000000000
        0.000000000076329
        0.000000000241123
        0.000000000655213
       -0.000000000371922
       -0.000000000342724
        0.000000000025405
        0.000000000000000
        0.000000000000000
        0.000000000000000
        0.000000000000000
        0.000000000128619
       -0.000000000028964
        0.000000000022859
       -0.000000000081905
        0.000000000000000
        0.000000000000000
        0.000000000000000
        0.000000000000000
        0.000000000000000
        0.000000000000000
        0.000000000048479
       -0.000000000046413
        0.000000000000000
        0.000000000000000
        0.000000000000000
        0.000000000000000
        0.000000000000000
        0.000000000000000
        0.000000000000000
        0.000000000000000
        0.000000000000000
        0.000000000000000
        0.000000000000000
        0.000000000000000
        0.000000000000000
        0.000000000000000
        0.000000000000000
        0.000000000000000
        0.000000000000000
        0.000000000000000
        0.000000000000000
        0.000000000000000
        0.000000000000000
        0.000000000000000
        0.000000000000000
        0.000000000000000
        0.000000000000000
        0.000000000000000
        0.000000000000000
        0.000000000000000
        0.000000000000000
        0.000000000000000
        0.000000000000000
        0.000000000000000
        0.000000000000000
        0.000000000000000
        0.000000000000000
        0.000000000000000
        0.000000000000000
        0.000000000000000
        0.000000000000000
        0.000000000000000
        0.000000000000000
        0.000000000000000
        0.000000000045804
       -0.000000000063424
        0.000000000000000
        0.000000000000000
        0.000000000000000
        0.000000000000000
        0.000000000000000
        0.000000000000000
        0.000000000000000
        0.000000000025550
        0.000000000002862
       -0.000000000025001
        0.000000000000000
        0.000000000000000
        0.000000000000000
        0.000000000000000
        0.000000000000000
        0.000000000000000
        0.000000000000000
        0.000000000063972
       -0.000000000043716
        0.000000000000000
        0.000000000000000
        0.000000000000000
        0.000000000000000
        0.000000000000000
        0.000000000000000
        0.000000000000000
        0.000000000000000
        0.000000000000000
        0.000000000000000
        0.000000000000000
        0.000000000000000
        0.000000000000000
        0.000000000000000
        0.000000000000000
        0.000000000000000
        0.000000000000000
        0.000000000000000
        0.000000000000000
        0.000000000000000
        0.000000000000000
        0.000000000000000
        0.000000000000000
        0.000000000000000
        0.000000000000000
        0.000000000000000
        0.000000000000000
        0.000000000000000
        0.000000000000000
        0.000000000000000
END_DATAGRID_3D
END_BLOCK_DATAGRID_3D
