ATOMS
         C    7.558905    7.558905    7.558905
         H    8.755769    8.755769    8.755769
         H    6.362040    6.362040    8.755769
         H    8.755769    6.362040    6.362040
         H    6.362040    8.755769    6.362040
BEGIN_BLOCK_DATAGRID_3D
units: coords = b, function = sqrt(b^-3)
BEGIN_DATAGRID_3D_function
      9      9      9
0.0 0.0 0.0
   15.117809    0.000000    0.000000
    0.000000   15.117809    0.000000
    0.000000    0.000000   15.117809
        0.000000000000000
        0.000000000000000
        0.000000000000000
        0.000000000000000
        0.000000000000000
        0.000000000000000
        0.000000000000000
        0.000000000000000
        0.000000000000000
        0.000000000000000
        0.000000000000000
        0.000000000000000
        0.000000000000000
        0.000000000000000
        0.000000000000000
        0.000000000000000
        0.000000000000000
        0.000000000000000
        0.000000000000000
        0.000000000000000
        0.000000000000000
        0.000000000000000
        0.000000000000000
        0.000000000000000
        0.000000000000000
        0.000000000000000
        0.000000000000000
        0.000000000000000
        0.000000000000000
        0.000000000000000
        0.000000000000000
       -0.000026582754000
        0.000010111657094
        0.000000000000000
        0.000000000000000
        0.000000000000000
        0.000000000000000
        0.000000000000000
        0.000000000000000
       -0.000058485838036
       -0.000024618418070
        0.000025970282830
        0.000000000000000
        0.000000000000000
        0.000000000000000
        0.000000000000000
        0.000000000000000
        0.000000000000000
       -0.000037981103604
       -0.000006450344753
        0.000000000000000
        0.000000000000000
        0.000000000000000
        0.000000000000000
        0.000000000000000
        0.000000000000000
        0.000000000000000
        0.000000000000000
        0.000000000000000
        0.000000000000000
        0.000000000000000
        0.000000000000000
        0.000000000000000
        0.000000000000000
        0.000000000000000
        0.000000000000000
        0.000000000000000
        0.000000000000000
        0.000000000000000
        0.000000000000000
        0.000000000000000
        0.000000000000000
        0.000000000000000
        0.000000000000000
        0.000000000000000
        0.000000000000000
        0.000000000000000
        0.000000000000000
        0.000000000000000
        0.000000000000000
        0.000000000000000
        0.000000000000000
        0.000000000000000
        0.000000000000000
        0.000000000000000
        0.000000000000000
        0.000000000000000
        0.000000000000000
        0.000000000000000
        0.000000000000000
        0.000000000000000
        0.000000000000000
        0.000000000000000
        0.000000000000000
       -0.000057416393881
       -0.000019715558047
        0.000000000000000
        0.000000000000000
        0.000000000000000
        0.000000000000000
        0.000000000000000
        0.000000000000000
       -0.000206762067656
       -0.000173677320870
       -0.000002556097259
        0.000058174662593
        0.000000000000000
        0.000000000000000
        0.000000000000000
        0.000000000000000
       -0.000271309859497
       -0.000442655813577
       -0.000248296650029
        0.000118726825004
        0.000191468376434
        0.000087020247725
        0.000000000000000
        0.000000000000000
       -0.000131783503110
       -0.000378490256693
       -0.000500647546532
       -0.000142879636806
        0.000296166633619
        0.000298828172990
        0.000114605012604
        0.000000000000000
        0.000000000000000
       -0.000103845973511
       -0.000263266552680
       -0.000286514818969
        0.000038925639289
        0.000308833961294
        0.000225346173397
        0.000000000000000
        0.000000000000000
        0.000000000000000
        0.000000000000000
       -0.000092229200305
       -0.000074387075668
        0.000085700500787
        0.000156932230176
        0.000000000000000
        0.000000000000000
        0.000000000000000
        0.000000000000000
        0.000000000000000
        0.000000000000000
       -0.000000742935554
        0.000035695020598
        0.000000000000000
        0.000000000000000
        0.000000000000000
        0.000000000000000
        0.000000000000000
        0.000000000000000
        0.000000000000000
        0.000000000000000
        0.000000000000000
        0.000000000000000
        0.000000000000000
        0.000000000000000
        0.000000000000000
        0.000000000000000
        0.000000000000000
        0.000000000000000
        0.000000000000000
        0.000000000000000
        0.000000000000000
        0.000000000000000
        0.000000000000000
        0.000000000000000
        0.000000000000000
        0.000000000000000
        0.000000000000000
       -0.000274653378546
       -0.000271432889517
       -0.000075629015841
        0.000027192357216
        0.000000000000000
        0.000000000000000
        0.000000000000000
        0.000000000000000
       -0.000552334178624
       -0.001050672522425
       -0.000840404174558
        0.000013365391186
        0.000256487521901
        0.000124204889464
        0.000000000000000
        0.000000000000000
       -0.000391352547379
       -0.001331480786054
       -0.002293277644296
       -0.001428531232856
        0.000835603648788
        0.000897164642354
        0.000348469016937
        0.000000000000000
        0.000000000000000
       -0.000550347993509
       -0.001743130654408
       -0.002892629973965
       -0.000654354178421
        0.002099665288179
        0.001508360716235
        0.000510400537314
        0.000000000000000
        0.000000000000000
       -0.000391057998033
       -0.001118208945679
       -0.001479969566715
        0.000604966118145
        0.001851820922648
        0.001205097667827
        0.000373289317237
        0.000000000000000
        0.000000000000000
       -0.000146198592001
       -0.000359278912635
       -0.000257529338581
        0.000565683970782
        0.000905155665888
        0.000515269164009
        0.000000000000000
        0.000000000000000
        0.000000000000000
        0.000000000000000
       -0.000053182397908
        0.000018839416509
        0.000211959379705
        0.000245696561947
        0.000000000000000
        0.000000000000000
        0.000000000000000
        0.000000000000000
        0.000000000000000
        0.000000000000000
        0.000000000000000
        0.000000000000000
        0.000000000000000
        0.000000000000000
        0.000000000000000
        0.000000000000000
        0.000000000000000
        0.000000000000000
        0.000000000000000
        0.000000000000000
       -0.000111636849419
       -0.000057282765366
        0.000000000000000
        0.000000000000000
        0.000000000000000
        0.000000000000000
        0.000000000000000
       -0.000419502420431
       -0.000794093960821
       -0.000722241637816
       -0.000218061113063
        0.000055497966710
        0.000052589484699
        0.000000000000000
        0.000000000000000
       -0.000471571457628
       -0.001683783885974
       -0.003220657379339
       -0.002777608084751
       -0.000005027553839
        0.000612740646166
        0.000285638709230
        0.000000000000000
        0.000000000000000
       -0.001067348119126
       -0.003952308749632
       -0.008482458050486
       -0.006267299399419
        0.003522399924652
        0.002622691613988
        0.000838461812378
        0.000154890377018
       -0.000208035123087
       -0.001339016135815
       -0.005293938772722
       -0.011986296500010
       -0.001736649903760
        0.010310480267903
        0.004989819050631
        0.001316799461390
        0.000210029974715
       -0.000155911118724
       -0.000879460310876
       -0.002969059544651
       -0.004996097901579
        0.004455255448661
        0.007816445862546
        0.003853333634205
        0.001071353354828
        0.000000000000000
        0.000000000000000
       -0.000312840302911
       -0.000759766867020
       -0.000407503685498
        0.002347359030176
        0.003064369967764
        0.001671424420386
        0.000480777634656
        0.000000000000000
        0.000000000000000
       -0.000060983250404
       -0.000091909054780
        0.000143159679614
        0.000651051559240
        0.000768339316545
        0.000421492661707
        0.000000000000000
        0.000000000000000
        0.000000000000000
        0.000000000000000
        0.000000000000000
        0.000048006163619
        0.000103393648072
        0.000000000000000
        0.000000000000000
        0.000000000000000
        0.000000000000000
        0.000000000000000
        0.000000000000000
        0.000000000000000
       -0.000182340032581
       -0.000193468155577
       -0.000076567214195
        0.000000000000000
        0.000000000000000
        0.000000000000000
        0.000000000000000
       -0.000224278032606
       -0.000728818971157
       -0.001283010342424
       -0.001122699094065
       -0.000356417526863
        0.000047107520494
        0.000058900764967
        0.000000000000000
        0.000000000000000
       -0.000802544188637
       -0.002862793850842
       -0.006039573116513
       -0.005141056927386
       -0.000396099825479
        0.000749080389735
        0.000356712028165
        0.000000000000000
       -0.000246633540845
       -0.001646486146495
       -0.007088918562176
       -0.019046479092991
       -0.013639002276851
        0.004962503342698
        0.003844467647126
        0.001138926858010
        0.000192756157823
       -0.000323067047185
       -0.001886185651166
       -0.008692097085290
       -0.023202499084944
       -0.000007973380151
        0.023483740677477
        0.008906749250295
        0.001957097913788
        0.000339234904781
       -0.000186785421126
       -0.001117592076905
       -0.003850567809268
       -0.005163086790962
        0.013635635130075
        0.019541076066127
        0.007365752651715
        0.001728825771663
        0.000262377208490
        0.000000000000000
       -0.000359021364937
       -0.000786270283356
        0.000291408029418
        0.005140395893498
        0.006214264678791
        0.002990412025369
        0.000848332029656
        0.000000000000000
        0.000000000000000
       -0.000062436184927
       -0.000061261625810
        0.000331913365313
        0.001122599038765
        0.001319096683153
        0.000762532383666
        0.000238543031560
        0.000000000000000
        0.000000000000000
        0.000000000000000
        0.000000000000000
        0.000072337244692
        0.000193458660816
        0.000187901460784
        0.000000000000000
        0.000000000000000
        0.000000000000000
        0.000000000000000
        0.000000000000000
        0.000000000000000
       -0.000163384395972
       -0.000147925319056
        0.000000000000000
        0.000000000000000
        0.000000000000000
        0.000000000000000
        0.000000000000000
       -0.000207604467138
       -0.000654770637399
       -0.001114375314262
       -0.000922929611211
       -0.000290576903807
        0.000015894218082
        0.000000000000000
        0.000000000000000
        0.000000000000000
       -0.000708839123277
       -0.002505568226104
       -0.005137475459464
       -0.003692899103895
       -0.000430266641777
        0.000472801733951
        0.000232134773528
        0.000000000000000
       -0.000213657594341
       -0.001368478676682
       -0.005778782832216
       -0.015389839168651
       -0.007963813576840
        0.002536907047038
        0.002501882034649
        0.000824763864741
        0.000000000000000
       -0.000225383838884
       -0.001425062087585
       -0.005645547598721
       -0.012223269383943
        0.001733282756984
        0.014193099140922
        0.006220401248210
        0.001550953168283
        0.000245103391598
        0.000000000000000
       -0.000760353098583
       -0.002249247073930
       -0.001746780428809
        0.009772419670477
        0.017111702030205
        0.006341543148663
        0.001493843130283
        0.000233193267570
        0.000000000000000
       -0.000215625407512
       -0.000408626137716
        0.000618130608288
        0.004122248625816
        0.005617686187888
        0.002733554726016
        0.000774284931982
        0.000000000000000
        0.000000000000000
        0.000000000000000
       -0.000007342445104
        0.000322059765781
        0.000993967617721
        0.001201133450893
        0.000709672317616
        0.000226050660429
        0.000000000000000
        0.000000000000000
        0.000000000000000
        0.000000000000000
        0.000000000000000
        0.000156150173314
        0.000174063593767
        0.000000000000000
        0.000000000000000
        0.000000000000000
        0.000000000000000
        0.000000000000000
        0.000000000000000
        0.000000000000000
        0.000000000000000
        0.000000000000000
        0.000000000000000
        0.000000000000000
        0.000000000000000
        0.000000000000000
        0.000000000000000
       -0.000305176924981
       -0.000529640988785
       -0.000419900124985
       -0.000133473436045
        0.000000000000000
        0.000000000000000
        0.000000000000000
        0.000000000000000
       -0.000327776935730
       -0.001106770294589
       -0.001932787054197
       -0.001317991945214
       -0.000181583409860
        0.000167245832605
        0.000000000000000
        0.000000000000000
        0.000000000000000
       -0.000630621428155
       -0.002147126147446
       -0.004065009578247
       -0.001950506191865
        0.000782282403339
        0.000939128486511
        0.000339623090946
        0.000000000000000
        0.000000000000000
       -0.000611217560065
       -0.001905933479790
       -0.002855535113131
        0.000653693144534
        0.003718499565134
        0.002231131698869
        0.000694643520507
        0.000000000000000
        0.000000000000000
       -0.000295844317761
       -0.000760929237636
       -0.000309249126755
        0.002773171773922
        0.004777054985261
        0.002449130729828
        0.000711454624275
        0.000000000000000
        0.000000000000000
        0.000000000000000
       -0.000113730054650
        0.000335747593544
        0.001592400887647
        0.002203713480580
        0.001245898855945
        0.000367508520060
        0.000000000000000
        0.000000000000000
        0.000000000000000
        0.000000000000000
        0.000163745728715
        0.000479310952285
        0.000592679420523
        0.000340025958399
        0.000000000000000
        0.000000000000000
        0.000000000000000
        0.000000000000000
        0.000000000000000
        0.000000000000000
        0.000000000000000
        0.000000000000000
        0.000000000000000
        0.000000000000000
        0.000000000000000
        0.000000000000000
        0.000000000000000
        0.000000000000000
        0.000000000000000
        0.000000000000000
        0.000000000000000
        0.000000000000000
        0.000000000000000
        0.000000000000000
        0.000000000000000
        0.000000000000000
        0.000000000000000
       -0.000139405307728
       -0.000113227697677
        0.000000000000000
        0.000000000000000
        0.000000000000000
        0.000000000000000
        0.000000000000000
        0.000000000000000
       -0.000266130122585
       -0.000436414496608
       -0.000293641246066
       -0.000044709104273
        0.000000000000000
        0.000000000000000
        0.000000000000000
        0.000000000000000
       -0.000164741744031
       -0.000483413139499
       -0.000684700815679
       -0.000310803691260
        0.000168928451444
        0.000212040706392
        0.000000000000000
        0.000000000000000
        0.000000000000000
       -0.000154930714423
       -0.000411590340274
       -0.000450449430579
        0.000142779581506
        0.000666512522670
        0.000510811731170
        0.000182838783922
        0.000000000000000
        0.000000000000000
        0.000000000000000
       -0.000155535006038
       -0.000029378381463
        0.000520022629934
        0.000864345512827
        0.000573701907892
        0.000191619897403
        0.000000000000000
        0.000000000000000
        0.000000000000000
        0.000000000000000
        0.000095854417825
        0.000381555383639
        0.000519606501940
        0.000309043653022
        0.000000000000000
        0.000000000000000
        0.000000000000000
        0.000000000000000
        0.000000000000000
        0.000000000000000
        0.000134935085896
        0.000161567544040
        0.000000000000000
        0.000000000000000
        0.000000000000000
        0.000000000000000
        0.000000000000000
        0.000000000000000
        0.000000000000000
        0.000000000000000
        0.000000000000000
        0.000000000000000
        0.000000000000000
        0.000000000000000
        0.000000000000000
        0.000000000000000
        0.000000000000000
        0.000000000000000
        0.000000000000000
        0.000000000000000
        0.000000000000000
        0.000000000000000
        0.000000000000000
        0.000000000000000
        0.000000000000000
        0.000000000000000
        0.000000000000000
        0.000000000000000
        0.000000000000000
        0.000000000000000
        0.000000000000000
        0.000000000000000
        0.000000000000000
        0.000000000000000
        0.000000000000000
        0.000000000000000
        0.000000000000000
        0.000000000000000
        0.000000000000000
        0.000000000000000
        0.000000000000000
        0.000000000000000
        0.000000000000000
        0.000000000000000
       -0.000077397128749
       -0.000038081326231
        0.000000000000000
        0.000000000000000
        0.000000000000000
        0.000000000000000
        0.000000000000000
        0.000000000000000
        0.000000000000000
       -0.000051516949854
        0.000024608923309
        0.000085363963759
        0.000000000000000
        0.000000000000000
        0.000000000000000
        0.000000000000000
        0.000000000000000
        0.000000000000000
        0.000000000000000
        0.000071096077894
        0.000106669171307
        0.000000000000000
        0.000000000000000
        0.000000000000000
        0.000000000000000
        0.000000000000000
        0.000000000000000
        0.000000000000000
        0.000000000000000
        0.000000000000000
        0.000000000000000
        0.000000000000000
        0.000000000000000
        0.000000000000000
        0.000000000000000
        0.000000000000000
        0.000000000000000
        0.000000000000000
        0.000000000000000
        0.000000000000000
        0.000000000000000
        0.000000000000000
        0.000000000000000
        0.000000000000000
        0.000000000000000
        0.000000000000000
        0.000000000000000
        0.000000000000000
        0.000000000000000
        0.000000000000000
        0.000000000000000
END_DATAGRID_3D
END_BLOCK_DATAGRID_3D
