ATOMS
         C    7.558905    7.558905    7.558905
         H    8.755769    8.755769    8.755769
         H    6.362040    6.362040    8.755769
         H    8.755769    6.362040    6.362040
         H    6.362040    8.755769    6.362040
BEGIN_BLOCK_DATAGRID_3D
units: coords = b, function = sqrt(b^-3)
BEGIN_DATAGRID_3D_function
      9      9      9
0.0 0.0 0.0
   15.117809    0.000000    0.000000
    0.000000   15.117809    0.000000
    0.000000    0.000000   15.117809
        0.000000000000000
        0.000000000000000
        0.000000000000000
        0.000000000000000
        0.000000000000000
        0.000000000000000
        0.000000000000000
        0.000000000000000
        0.000000000000000
        0.000000000000000
        0.000000000000000
        0.000000000000000
        0.000000000000000
        0.000000000000000
        0.000000000000000
        0.000000000000000
        0.000000000000000
        0.000000000000000
        0.000000000000000
        0.000000000000000
        0.000000000000000
        0.000000000000000
        0.000000000000000
        0.000000000000000
        0.000000000000000
        0.000000000000000
        0.000000000000000
        0.000000000000000
        0.000000000000000
        0.000000000000000
        0.000000000000000
       -0.001230928342267
       -0.001190663567387
        0.000000000000000
        0.000000000000000
        0.000000000000000
        0.000000000000000
        0.000000000000000
        0.000000000000000
       -0.000736673215157
       -0.001435366152750
       -0.001188984662282
        0.000000000000000
        0.000000000000000
        0.000000000000000
        0.000000000000000
        0.000000000000000
        0.000000000000000
       -0.000451264795917
       -0.000694769173005
        0.000000000000000
        0.000000000000000
        0.000000000000000
        0.000000000000000
        0.000000000000000
        0.000000000000000
        0.000000000000000
        0.000000000000000
        0.000000000000000
        0.000000000000000
        0.000000000000000
        0.000000000000000
        0.000000000000000
        0.000000000000000
        0.000000000000000
        0.000000000000000
        0.000000000000000
        0.000000000000000
        0.000000000000000
        0.000000000000000
        0.000000000000000
        0.000000000000000
        0.000000000000000
        0.000000000000000
        0.000000000000000
        0.000000000000000
        0.000000000000000
        0.000000000000000
        0.000000000000000
        0.000000000000000
        0.000000000000000
        0.000000000000000
        0.000000000000000
        0.000000000000000
        0.000000000000000
        0.000000000000000
        0.000000000000000
        0.000000000000000
        0.000000000000000
        0.000000000000000
        0.000000000000000
        0.000000000000000
        0.000000000000000
        0.000000000000000
       -0.001289564766295
       -0.001295212731780
        0.000000000000000
        0.000000000000000
        0.000000000000000
        0.000000000000000
        0.000000000000000
        0.000000000000000
       -0.002200064577192
       -0.004357012653235
       -0.004354231746774
       -0.002201542123514
        0.000000000000000
        0.000000000000000
        0.000000000000000
        0.000000000000000
       -0.001178927668942
       -0.004336322803240
       -0.008276613104864
       -0.008074883475690
       -0.004200478861032
       -0.001210895624309
        0.000000000000000
        0.000000000000000
       -0.000112193487651
       -0.001146856034650
       -0.004362980860447
       -0.008329285906319
       -0.007841924904361
       -0.003981214111474
       -0.001153320801937
        0.000000000000000
        0.000000000000000
        0.000025503869333
       -0.000309575147490
       -0.001850539326747
       -0.003928843036034
       -0.003734113150030
       -0.001855222878053
        0.000000000000000
        0.000000000000000
        0.000000000000000
        0.000000000000000
        0.000109363377154
       -0.000156377435264
       -0.000771943726439
       -0.000834468012879
        0.000000000000000
        0.000000000000000
        0.000000000000000
        0.000000000000000
        0.000000000000000
        0.000000000000000
        0.000109422029025
        0.000023617644732
        0.000000000000000
        0.000000000000000
        0.000000000000000
        0.000000000000000
        0.000000000000000
        0.000000000000000
        0.000000000000000
        0.000000000000000
        0.000000000000000
        0.000000000000000
        0.000000000000000
        0.000000000000000
        0.000000000000000
        0.000000000000000
        0.000000000000000
        0.000000000000000
        0.000000000000000
        0.000000000000000
        0.000000000000000
        0.000000000000000
        0.000000000000000
        0.000000000000000
        0.000000000000000
        0.000000000000000
        0.000000000000000
       -0.002130930835824
       -0.004258088406405
       -0.004280748882620
       -0.002170578537786
        0.000000000000000
        0.000000000000000
        0.000000000000000
        0.000000000000000
       -0.001888519473250
       -0.007718228388529
       -0.016019633460628
       -0.016286515977750
       -0.007942542689347
       -0.002094288326565
        0.000000000000000
        0.000000000000000
       -0.000255976657941
       -0.003260992806844
       -0.015265262727831
       -0.036759773773774
       -0.036960094339432
       -0.015587204349351
       -0.003946197910032
        0.000000000000000
        0.000000000000000
        0.000174067514015
       -0.001854963223946
       -0.014052767971261
       -0.038140403105415
       -0.033947154565667
       -0.014153957303289
       -0.003639207814442
        0.000000000000000
        0.000000000000000
        0.000671882293873
        0.001263334643198
       -0.001420080096812
       -0.011242915355638
       -0.011948098056798
       -0.005919854201232
       -0.001616357882413
        0.000000000000000
        0.000000000000000
        0.000523022737546
        0.001512260431289
        0.001960683881586
        0.000007245056057
       -0.001464294685868
       -0.001034363887886
        0.000000000000000
        0.000000000000000
        0.000000000000000
        0.000000000000000
        0.000598929201292
        0.001005130900031
        0.000791195122650
        0.000257660812617
        0.000000000000000
        0.000000000000000
        0.000000000000000
        0.000000000000000
        0.000000000000000
        0.000000000000000
        0.000000000000000
        0.000000000000000
        0.000000000000000
        0.000000000000000
        0.000000000000000
        0.000000000000000
        0.000000000000000
        0.000000000000000
        0.000000000000000
        0.000000000000000
       -0.001144865720008
       -0.001122886427017
        0.000000000000000
        0.000000000000000
        0.000000000000000
        0.000000000000000
        0.000000000000000
       -0.001027059151766
       -0.003978433948166
       -0.007797005999402
       -0.007736203334346
       -0.004064594620192
       -0.001176699369978
        0.000000000000000
        0.000000000000000
       -0.000173240165783
       -0.002899939465267
       -0.014320872078013
       -0.035394582399333
       -0.036114731669276
       -0.015302958249353
       -0.003883795372344
        0.000000000000000
        0.000000000000000
        0.000441086366991
       -0.002659745936111
       -0.028817032490793
       -0.103762844089535
       -0.109773391492920
       -0.034038322043670
       -0.006903183034161
       -0.000956188337397
        0.000412577140544
        0.002040745349680
        0.004173205580351
       -0.014997745925006
       -0.101177616824126
       -0.090560536171427
       -0.029230999777514
       -0.006184199134587
       -0.000891418413203
        0.000453927549270
        0.002672673338878
        0.009868536920189
        0.020894931483497
       -0.001805054322366
       -0.015788761879611
       -0.008687185042509
       -0.002498053985966
        0.000000000000000
        0.000000000000000
        0.001658876616327
        0.005757535026318
        0.011941553415953
        0.010328899580275
        0.002970190670038
       -0.000218242483346
       -0.000310236791564
        0.000000000000000
        0.000000000000000
        0.000566372751038
        0.001838947688860
        0.003502742351028
        0.003649609594737
        0.001919227111548
        0.000543058293190
        0.000000000000000
        0.000000000000000
        0.000000000000000
        0.000000000000000
        0.000000000000000
        0.000619977780349
        0.000665278980436
        0.000000000000000
        0.000000000000000
        0.000000000000000
        0.000000000000000
        0.000000000000000
        0.000000000000000
        0.000000000000000
       -0.000610552620309
       -0.001264498829812
       -0.001085865250705
        0.000000000000000
        0.000000000000000
        0.000000000000000
        0.000000000000000
       -0.000016794880075
       -0.000787824839276
       -0.003566258010048
       -0.007337759763762
       -0.007185674122879
       -0.003729653302839
       -0.001097994568999
        0.000000000000000
        0.000000000000000
        0.000434182594819
       -0.000707498517281
       -0.010848117614138
       -0.033600096464291
       -0.031437321370094
       -0.013395152685305
       -0.003486565700069
        0.000000000000000
        0.000452637532157
        0.002357889370723
        0.006012682465413
       -0.007808468876361
       -0.089133078455809
       -0.085182091121108
       -0.028086344080095
       -0.006007545154569
       -0.000874361900129
        0.000846001438727
        0.004908586688032
        0.022471126346855
        0.059608576333530
        0.000005808568147
       -0.059583513833650
       -0.022459427689924
       -0.004903464245512
       -0.000844876299304
        0.000682350963838
        0.004834916390780
        0.022270064631236
        0.070005357626694
        0.089139969423313
        0.023012142131405
       -0.000180012060360
       -0.001177930815145
       -0.000259153074959
        0.000000000000000
        0.002588330264261
        0.010142300587328
        0.025616166543817
        0.033601718228765
        0.016676013914372
        0.003966661519314
        0.000467032888923
        0.000000000000000
        0.000000000000000
        0.000762852341015
        0.002830640655512
        0.006009824437871
        0.007338010674430
        0.004743284236590
        0.001688312035042
        0.000352670732865
        0.000000000000000
        0.000000000000000
        0.000000000000000
        0.000000000000000
        0.000893147736313
        0.001264534774162
        0.000803377288916
        0.000000000000000
        0.000000000000000
        0.000000000000000
        0.000000000000000
        0.000000000000000
        0.000000000000000
       -0.000323568204397
       -0.000551592167881
        0.000000000000000
        0.000000000000000
        0.000000000000000
        0.000000000000000
        0.000000000000000
        0.000132519414370
        0.000091655148763
       -0.001007482706360
       -0.002955495287690
       -0.003131334053630
       -0.001645896522872
        0.000000000000000
        0.000000000000000
        0.000000000000000
        0.000999643599112
        0.002685140529246
        0.002304524632437
       -0.006893687260659
       -0.009653158772269
       -0.005188022190471
       -0.001476160143777
        0.000000000000000
        0.000513855756283
        0.003177112424675
        0.012747770021530
        0.031479161602549
        0.010762606744321
       -0.010479251379354
       -0.007336605917518
       -0.002253135031722
        0.000000000000000
        0.000722411355451
        0.005152060411823
        0.024109541516298
        0.077194634675337
        0.101184507791630
        0.028390587181724
        0.000964643637059
       -0.001001276835128
       -0.000242096561885
        0.000000000000000
        0.004314776291261
        0.018693916758494
        0.055097295082451
        0.094814151144263
        0.057421525989712
        0.011434973503740
        0.001059421719384
       -0.000010339608634
        0.000000000000000
        0.001961372479886
        0.008309987377339
        0.021007251802683
        0.031961641284566
        0.021874864964906
        0.006865859197198
        0.001227902710243
        0.000000000000000
        0.000000000000000
        0.000000000000000
        0.002130641154844
        0.005191200239524
        0.007103274533826
        0.005242073703732
        0.002135377685840
        0.000478495105570
        0.000000000000000
        0.000000000000000
        0.000000000000000
        0.000000000000000
        0.000000000000000
        0.001031216944246
        0.000826583885338
        0.000000000000000
        0.000000000000000
        0.000000000000000
        0.000000000000000
        0.000000000000000
        0.000000000000000
        0.000000000000000
        0.000000000000000
        0.000000000000000
        0.000000000000000
        0.000000000000000
        0.000000000000000
        0.000000000000000
        0.000000000000000
        0.000327592889066
        0.000307235832386
       -0.000260304619503
       -0.000542416901887
        0.000000000000000
        0.000000000000000
        0.000000000000000
        0.000000000000000
        0.000710299489047
        0.002278320510370
        0.003666688016077
        0.001913429146641
       -0.000371447489828
       -0.000686547953220
        0.000000000000000
        0.000000000000000
        0.000000000000000
        0.001986637921566
        0.007179340912366
        0.015666158145201
        0.014678127675254
        0.005265129954568
        0.000513589527415
       -0.000170039052927
        0.000000000000000
        0.000000000000000
        0.002848445345065
        0.011289765293993
        0.028820816900941
        0.038142024869889
        0.019185847109944
        0.004725466137298
        0.000619675003296
        0.000000000000000
        0.000000000000000
        0.002044108972043
        0.008671040718915
        0.021951642452502
        0.033326832659007
        0.022720227635062
        0.007150105297196
        0.001290305247931
        0.000000000000000
        0.000000000000000
        0.000000000000000
        0.003610582039222
        0.009555032107161
        0.014099748810073
        0.010661606758875
        0.004154581445915
        0.000862167122540
        0.000000000000000
        0.000000000000000
        0.000000000000000
        0.000000000000000
        0.002415836597946
        0.003727372963786
        0.002968962395006
        0.001244668965676
        0.000000000000000
        0.000000000000000
        0.000000000000000
        0.000000000000000
        0.000000000000000
        0.000000000000000
        0.000000000000000
        0.000000000000000
        0.000000000000000
        0.000000000000000
        0.000000000000000
        0.000000000000000
        0.000000000000000
        0.000000000000000
        0.000000000000000
        0.000000000000000
        0.000000000000000
        0.000000000000000
        0.000000000000000
        0.000000000000000
        0.000000000000000
        0.000000000000000
        0.000000000000000
        0.000250619603027
        0.000174332288617
        0.000000000000000
        0.000000000000000
        0.000000000000000
        0.000000000000000
        0.000000000000000
        0.000000000000000
        0.000817158713203
        0.001468744167681
        0.001302834229586
        0.000549711923610
        0.000000000000000
        0.000000000000000
        0.000000000000000
        0.000000000000000
        0.000673388296074
        0.002240177985113
        0.004345798971416
        0.004622957343081
        0.002522006207947
        0.000752384648371
        0.000000000000000
        0.000000000000000
        0.000000000000000
        0.000858250948591
        0.003189671850886
        0.006806547288271
        0.008329536816986
        0.005399535018072
        0.001939872843678
        0.000407996965803
        0.000000000000000
        0.000000000000000
        0.000000000000000
        0.002282509672020
        0.005549089094597
        0.007582881639288
        0.005580753845077
        0.002271261926680
        0.000512691359900
        0.000000000000000
        0.000000000000000
        0.000000000000000
        0.000000000000000
        0.002484970339314
        0.003826297210615
        0.003042445259160
        0.001275632551403
        0.000000000000000
        0.000000000000000
        0.000000000000000
        0.000000000000000
        0.000000000000000
        0.000000000000000
        0.001091660858946
        0.000935294300520
        0.000000000000000
        0.000000000000000
        0.000000000000000
        0.000000000000000
        0.000000000000000
        0.000000000000000
        0.000000000000000
        0.000000000000000
        0.000000000000000
        0.000000000000000
        0.000000000000000
        0.000000000000000
        0.000000000000000
        0.000000000000000
        0.000000000000000
        0.000000000000000
        0.000000000000000
        0.000000000000000
        0.000000000000000
        0.000000000000000
        0.000000000000000
        0.000000000000000
        0.000000000000000
        0.000000000000000
        0.000000000000000
        0.000000000000000
        0.000000000000000
        0.000000000000000
        0.000000000000000
        0.000000000000000
        0.000000000000000
        0.000000000000000
        0.000000000000000
        0.000000000000000
        0.000000000000000
        0.000000000000000
        0.000000000000000
        0.000000000000000
        0.000000000000000
        0.000000000000000
        0.000000000000000
        0.000000000000000
        0.000747674371870
        0.000808455985560
        0.000000000000000
        0.000000000000000
        0.000000000000000
        0.000000000000000
        0.000000000000000
        0.000000000000000
        0.000000000000000
        0.001019268331162
        0.001435402097099
        0.000906496700493
        0.000000000000000
        0.000000000000000
        0.000000000000000
        0.000000000000000
        0.000000000000000
        0.000000000000000
        0.000000000000000
        0.001117279566505
        0.000894361025709
        0.000000000000000
        0.000000000000000
        0.000000000000000
        0.000000000000000
        0.000000000000000
        0.000000000000000
        0.000000000000000
        0.000000000000000
        0.000000000000000
        0.000000000000000
        0.000000000000000
        0.000000000000000
        0.000000000000000
        0.000000000000000
        0.000000000000000
        0.000000000000000
        0.000000000000000
        0.000000000000000
        0.000000000000000
        0.000000000000000
        0.000000000000000
        0.000000000000000
        0.000000000000000
        0.000000000000000
        0.000000000000000
        0.000000000000000
        0.000000000000000
        0.000000000000000
        0.000000000000000
        0.000000000000000
END_DATAGRID_3D
END_BLOCK_DATAGRID_3D
