ATOMS
         C    7.558905    7.558905    7.558905
         H    8.755769    8.755769    8.755769
         H    6.362040    6.362040    8.755769
         H    8.755769    6.362040    6.362040
         H    6.362040    8.755769    6.362040
BEGIN_BLOCK_DATAGRID_3D
units: coords = b, function = 1/hbar/H*b^-2
BEGIN_DATAGRID_3D_function
      9      9      9
0.0 0.0 0.0
   15.117809    0.000000    0.000000
    0.000000   15.117809    0.000000
    0.000000    0.000000   15.117809
        0.000000000000000
        0.000000000000000
        0.000000000000000
        0.000000000000000
        0.000000000000000
        0.000000000000000
        0.000000000000000
        0.000000000000000
        0.000000000000000
        0.000000000000000
        0.000000000000000
        0.000000000000000
        0.000000000000000
        0.000000000000000
        0.000000000000000
        0.000000000000000
        0.000000000000000
        0.000000000000000
        0.000000000000000
        0.000000000000000
        0.000000000000000
        0.000000000000000
        0.000000000000000
        0.000000000000000
        0.000000000000000
        0.000000000000000
        0.000000000000000
        0.000000000000000
        0.000000000000000
        0.000000000000000
        0.000000000000000
       -0.000000001882250
        0.000000001225758
        0.000000000000000
        0.000000000000000
        0.000000000000000
        0.000000000000000
        0.000000000000000
        0.000000000000000
       -0.000000001251543
       -0.000000000000739
        0.000000001247884
        0.000000000000000
        0.000000000000000
        0.000000000000000
        0.000000000000000
        0.000000000000000
        0.000000000000000
       -0.000000001228424
        0.000000001876189
        0.000000000000000
        0.000000000000000
        0.000000000000000
        0.000000000000000
        0.000000000000000
        0.000000000000000
        0.000000000000000
        0.000000000000000
        0.000000000000000
        0.000000000000000
        0.000000000000000
        0.000000000000000
        0.000000000000000
        0.000000000000000
        0.000000000000000
        0.000000000000000
        0.000000000000000
        0.000000000000000
        0.000000000000000
        0.000000000000000
        0.000000000000000
        0.000000000000000
        0.000000000000000
        0.000000000000000
        0.000000000000000
        0.000000000000000
        0.000000000000000
        0.000000000000000
        0.000000000000000
        0.000000000000000
        0.000000000000000
        0.000000000000000
        0.000000000000000
        0.000000000000000
        0.000000000000000
        0.000000000000000
        0.000000000000000
        0.000000000000000
        0.000000000000000
        0.000000000000000
        0.000000000000000
        0.000000000000000
        0.000000000000000
        0.000000000000000
       -0.000000001175465
        0.000000001081662
        0.000000000000000
        0.000000000000000
        0.000000000000000
        0.000000000000000
        0.000000000000000
        0.000000000000000
       -0.000000003377019
       -0.000000000646662
        0.000000000155057
        0.000000002424562
        0.000000000000000
        0.000000000000000
        0.000000000000000
        0.000000000000000
       -0.000000002522059
       -0.000000007393733
       -0.000000017125771
        0.000000012768425
        0.000000007358998
       -0.000000000245701
        0.000000000000000
        0.000000000000000
        0.000000000229143
       -0.000000004696667
       -0.000000030697242
       -0.000000000036240
        0.000000030764226
        0.000000004724347
       -0.000000000226402
        0.000000000000000
        0.000000000000000
        0.000000000246854
       -0.000000007318811
       -0.000000012776372
        0.000000017131357
        0.000000007412167
        0.000000002531420
        0.000000000000000
        0.000000000000000
        0.000000000000000
        0.000000000000000
       -0.000000002422654
       -0.000000000146566
        0.000000000646661
        0.000000003382740
        0.000000000000000
        0.000000000000000
        0.000000000000000
        0.000000000000000
        0.000000000000000
        0.000000000000000
       -0.000000001082454
        0.000000001176410
        0.000000000000000
        0.000000000000000
        0.000000000000000
        0.000000000000000
        0.000000000000000
        0.000000000000000
        0.000000000000000
        0.000000000000000
        0.000000000000000
        0.000000000000000
        0.000000000000000
        0.000000000000000
        0.000000000000000
        0.000000000000000
        0.000000000000000
        0.000000000000000
        0.000000000000000
        0.000000000000000
        0.000000000000000
        0.000000000000000
        0.000000000000000
        0.000000000000000
        0.000000000000000
        0.000000000000000
        0.000000000000000
       -0.000000002349240
       -0.000000001901701
        0.000000001315101
        0.000000001432232
        0.000000000000000
        0.000000000000000
        0.000000000000000
        0.000000000000000
       -0.000000004773251
        0.000000001557437
        0.000000014804117
       -0.000000015008908
       -0.000000007314149
        0.000000000980527
        0.000000000000000
        0.000000000000000
       -0.000000000254582
       -0.000000007287307
        0.000000187749541
        0.000000314493209
       -0.000000270607272
       -0.000000182882100
        0.000000009185621
        0.000000000000000
        0.000000000000000
       -0.000000006558169
        0.000000100923894
        0.000000744161921
        0.000000000492116
       -0.000000746389373
       -0.000000101700409
        0.000000006616405
        0.000000000000000
        0.000000000000000
       -0.000000009128396
        0.000000181839409
        0.000000271783334
       -0.000000314344888
       -0.000000188737753
        0.000000007243926
        0.000000000265748
        0.000000000000000
        0.000000000000000
       -0.000000000975490
        0.000000007249709
        0.000000015201602
       -0.000000014736039
       -0.000000001638202
        0.000000004786203
        0.000000000000000
        0.000000000000000
        0.000000000000000
        0.000000000000000
       -0.000000001433839
       -0.000000001310237
        0.000000001903721
        0.000000002349561
        0.000000000000000
        0.000000000000000
        0.000000000000000
        0.000000000000000
        0.000000000000000
        0.000000000000000
        0.000000000000000
        0.000000000000000
        0.000000000000000
        0.000000000000000
        0.000000000000000
        0.000000000000000
        0.000000000000000
        0.000000000000000
        0.000000000000000
        0.000000000000000
       -0.000000000714733
       -0.000000000001797
        0.000000000000000
        0.000000000000000
        0.000000000000000
        0.000000000000000
        0.000000000000000
       -0.000000001570591
       -0.000000003965345
        0.000000001034530
       -0.000000000843932
        0.000000001973948
       -0.000000000001343
        0.000000000000000
        0.000000000000000
       -0.000000000879289
       -0.000000001520828
        0.000000045876768
       -0.000000026421909
       -0.000000091747355
       -0.000000008496051
        0.000000000796953
        0.000000000000000
        0.000000000000000
       -0.000000011424047
        0.000000173464865
        0.000000534428951
       -0.000000918916479
       -0.000001703114391
       -0.000000148720823
        0.000000008392374
       -0.000000000058239
       -0.000000000337541
       -0.000000025353377
        0.000000616967641
        0.000001948067298
        0.000000015301503
       -0.000001961538367
       -0.000000620551123
        0.000000025481228
        0.000000000344416
        0.000000000058247
       -0.000000008307770
        0.000000147722570
        0.000001694418096
        0.000000925099359
       -0.000000536195273
       -0.000000174647990
        0.000000011487045
        0.000000000000000
        0.000000000000000
       -0.000000000782715
        0.000000008476799
        0.000000091320855
        0.000000026896893
       -0.000000046068453
        0.000000001454538
        0.000000000887686
        0.000000000000000
        0.000000000000000
        0.000000000001147
       -0.000000001968497
        0.000000000861979
       -0.000000001008590
        0.000000003964887
        0.000000001572718
        0.000000000000000
        0.000000000000000
        0.000000000000000
        0.000000000000000
        0.000000000000000
        0.000000000002344
        0.000000000713495
        0.000000000000000
        0.000000000000000
        0.000000000000000
        0.000000000000000
        0.000000000000000
        0.000000000000000
        0.000000000000000
       -0.000000000002344
       -0.000000002117379
       -0.000000000001797
        0.000000000000000
        0.000000000000000
        0.000000000000000
        0.000000000000000
       -0.000000000001147
       -0.000000002818870
        0.000000001197428
       -0.000000000708418
        0.000000001206578
       -0.000000002813675
       -0.000000000001343
        0.000000000000000
        0.000000000000000
       -0.000000002077859
        0.000000016678906
       -0.000000033652198
       -0.000000092122055
       -0.000000034217947
        0.000000016850681
       -0.000000002084211
        0.000000000000000
       -0.000000000058247
       -0.000000016236702
        0.000000286515892
       -0.000000879376660
       -0.000002230784079
       -0.000000888029143
        0.000000288098751
       -0.000000016268292
       -0.000000000058239
       -0.000000000000000
        0.000000000000000
        0.000000000000000
       -0.000000000000000
        0.000000000000000
       -0.000000000000000
       -0.000000000000000
        0.000000000000000
        0.000000000000000
        0.000000000058247
        0.000000016236702
       -0.000000286515892
        0.000000879376660
        0.000002230784079
        0.000000888029143
       -0.000000288098751
        0.000000016268292
        0.000000000058239
        0.000000000000000
        0.000000002077859
       -0.000000016678906
        0.000000033652198
        0.000000092122055
        0.000000034217947
       -0.000000016850681
        0.000000002084211
        0.000000000000000
        0.000000000000000
        0.000000000001147
        0.000000002818870
       -0.000000001197428
        0.000000000708418
       -0.000000001206578
        0.000000002813675
        0.000000000001343
        0.000000000000000
        0.000000000000000
        0.000000000000000
        0.000000000000000
        0.000000000002344
        0.000000002117379
        0.000000000001797
        0.000000000000000
        0.000000000000000
        0.000000000000000
        0.000000000000000
        0.000000000000000
        0.000000000000000
       -0.000000000002344
       -0.000000000713495
        0.000000000000000
        0.000000000000000
        0.000000000000000
        0.000000000000000
        0.000000000000000
       -0.000000000001147
        0.000000001968497
       -0.000000000861979
        0.000000001008590
       -0.000000003964887
       -0.000000001572718
        0.000000000000000
        0.000000000000000
        0.000000000000000
        0.000000000782715
       -0.000000008476799
       -0.000000091320855
       -0.000000026896893
        0.000000046068453
       -0.000000001454538
       -0.000000000887686
        0.000000000000000
       -0.000000000058247
        0.000000008307770
       -0.000000147722570
       -0.000001694418096
       -0.000000925099359
        0.000000536195273
        0.000000174647990
       -0.000000011487045
        0.000000000000000
        0.000000000337541
        0.000000025353377
       -0.000000616967641
       -0.000001948067298
       -0.000000015301503
        0.000001961538367
        0.000000620551123
       -0.000000025481228
       -0.000000000344416
        0.000000000000000
        0.000000011424047
       -0.000000173464865
       -0.000000534428951
        0.000000918916479
        0.000001703114391
        0.000000148720823
       -0.000000008392374
        0.000000000058239
        0.000000000000000
        0.000000000879289
        0.000000001520828
       -0.000000045876768
        0.000000026421909
        0.000000091747355
        0.000000008496051
       -0.000000000796953
        0.000000000000000
        0.000000000000000
        0.000000000000000
        0.000000001570591
        0.000000003965345
       -0.000000001034530
        0.000000000843932
       -0.000000001973948
        0.000000000001343
        0.000000000000000
        0.000000000000000
        0.000000000000000
        0.000000000000000
        0.000000000000000
        0.000000000714733
        0.000000000001797
        0.000000000000000
        0.000000000000000
        0.000000000000000
        0.000000000000000
        0.000000000000000
        0.000000000000000
        0.000000000000000
        0.000000000000000
        0.000000000000000
        0.000000000000000
        0.000000000000000
        0.000000000000000
        0.000000000000000
        0.000000000000000
        0.000000001433839
        0.000000001310237
       -0.000000001903721
       -0.000000002349561
        0.000000000000000
        0.000000000000000
        0.000000000000000
        0.000000000000000
        0.000000000975490
       -0.000000007249709
       -0.000000015201602
        0.000000014736039
        0.000000001638202
       -0.000000004786203
        0.000000000000000
        0.000000000000000
        0.000000000000000
        0.000000009128396
       -0.000000181839409
       -0.000000271783334
        0.000000314344888
        0.000000188737753
       -0.000000007243926
       -0.000000000265748
        0.000000000000000
        0.000000000000000
        0.000000006558169
       -0.000000100923894
       -0.000000744161921
       -0.000000000492116
        0.000000746389373
        0.000000101700409
       -0.000000006616405
        0.000000000000000
        0.000000000000000
        0.000000000254582
        0.000000007287307
       -0.000000187749541
       -0.000000314493209
        0.000000270607272
        0.000000182882100
       -0.000000009185621
        0.000000000000000
        0.000000000000000
        0.000000000000000
        0.000000004773251
       -0.000000001557437
       -0.000000014804117
        0.000000015008908
        0.000000007314149
       -0.000000000980527
        0.000000000000000
        0.000000000000000
        0.000000000000000
        0.000000000000000
        0.000000002349240
        0.000000001901701
       -0.000000001315101
       -0.000000001432232
        0.000000000000000
        0.000000000000000
        0.000000000000000
        0.000000000000000
        0.000000000000000
        0.000000000000000
        0.000000000000000
        0.000000000000000
        0.000000000000000
        0.000000000000000
        0.000000000000000
        0.000000000000000
        0.000000000000000
        0.000000000000000
        0.000000000000000
        0.000000000000000
        0.000000000000000
        0.000000000000000
        0.000000000000000
        0.000000000000000
        0.000000000000000
        0.000000000000000
        0.000000000000000
        0.000000001082454
       -0.000000001176410
        0.000000000000000
        0.000000000000000
        0.000000000000000
        0.000000000000000
        0.000000000000000
        0.000000000000000
        0.000000002422654
        0.000000000146566
       -0.000000000646661
       -0.000000003382740
        0.000000000000000
        0.000000000000000
        0.000000000000000
        0.000000000000000
       -0.000000000246854
        0.000000007318811
        0.000000012776372
       -0.000000017131357
       -0.000000007412167
       -0.000000002531420
        0.000000000000000
        0.000000000000000
        0.000000000000000
       -0.000000000229143
        0.000000004696667
        0.000000030697242
        0.000000000036240
       -0.000000030764226
       -0.000000004724347
        0.000000000226402
        0.000000000000000
        0.000000000000000
        0.000000000000000
        0.000000002522059
        0.000000007393733
        0.000000017125771
       -0.000000012768425
       -0.000000007358998
        0.000000000245701
        0.000000000000000
        0.000000000000000
        0.000000000000000
        0.000000000000000
        0.000000003377019
        0.000000000646662
       -0.000000000155057
       -0.000000002424562
        0.000000000000000
        0.000000000000000
        0.000000000000000
        0.000000000000000
        0.000000000000000
        0.000000000000000
        0.000000001175465
       -0.000000001081662
        0.000000000000000
        0.000000000000000
        0.000000000000000
        0.000000000000000
        0.000000000000000
        0.000000000000000
        0.000000000000000
        0.000000000000000
        0.000000000000000
        0.000000000000000
        0.000000000000000
        0.000000000000000
        0.000000000000000
        0.000000000000000
        0.000000000000000
        0.000000000000000
        0.000000000000000
        0.000000000000000
        0.000000000000000
        0.000000000000000
        0.000000000000000
        0.000000000000000
        0.000000000000000
        0.000000000000000
        0.000000000000000
        0.000000000000000
        0.000000000000000
        0.000000000000000
        0.000000000000000
        0.000000000000000
        0.000000000000000
        0.000000000000000
        0.000000000000000
        0.000000000000000
        0.000000000000000
        0.000000000000000
        0.000000000000000
        0.000000000000000
        0.000000000000000
        0.000000000000000
        0.000000000000000
        0.000000000000000
        0.000000001228424
       -0.000000001876189
        0.000000000000000
        0.000000000000000
        0.000000000000000
        0.000000000000000
        0.000000000000000
        0.000000000000000
        0.000000000000000
        0.000000001251543
        0.000000000000739
       -0.000000001247884
        0.000000000000000
        0.000000000000000
        0.000000000000000
        0.000000000000000
        0.000000000000000
        0.000000000000000
        0.000000000000000
        0.000000001882250
       -0.000000001225758
        0.000000000000000
        0.000000000000000
        0.000000000000000
        0.000000000000000
        0.000000000000000
        0.000000000000000
        0.000000000000000
        0.000000000000000
        0.000000000000000
        0.000000000000000
        0.000000000000000
        0.000000000000000
        0.000000000000000
        0.000000000000000
        0.000000000000000
        0.000000000000000
        0.000000000000000
        0.000000000000000
        0.000000000000000
        0.000000000000000
        0.000000000000000
        0.000000000000000
        0.000000000000000
        0.000000000000000
        0.000000000000000
        0.000000000000000
        0.000000000000000
        0.000000000000000
        0.000000000000000
        0.000000000000000
END_DATAGRID_3D
END_BLOCK_DATAGRID_3D
