ATOMS
         C    7.558905    7.558905    7.558905
         H    8.755769    8.755769    8.755769
         H    6.362040    6.362040    8.755769
         H    8.755769    6.362040    6.362040
         H    6.362040    8.755769    6.362040
BEGIN_BLOCK_DATAGRID_3D
units: coords = b, function = sqrt(b^-3)
BEGIN_DATAGRID_3D_function
      9      9      9
0.0 0.0 0.0
   15.117809    0.000000    0.000000
    0.000000   15.117809    0.000000
    0.000000    0.000000   15.117809
        0.000000000000000
        0.000000000000000
        0.000000000000000
        0.000000000000000
        0.000000000000000
        0.000000000000000
        0.000000000000000
        0.000000000000000
        0.000000000000000
        0.000000000000000
        0.000000000000000
        0.000000000000000
        0.000000000000000
        0.000000000000000
        0.000000000000000
        0.000000000000000
        0.000000000000000
        0.000000000000000
        0.000000000000000
        0.000000000000000
        0.000000000000000
        0.000000000000000
        0.000000000000000
        0.000000000000000
        0.000000000000000
        0.000000000000000
        0.000000000000000
        0.000000000000000
        0.000000000000000
        0.000000000000000
        0.000000000000000
       -0.000065501934985
        0.000024861391479
        0.000000000000000
        0.000000000000000
        0.000000000000000
        0.000000000000000
        0.000000000000000
        0.000000000000000
       -0.000143345834343
       -0.000060615745350
        0.000063955917805
        0.000000000000000
        0.000000000000000
        0.000000000000000
        0.000000000000000
        0.000000000000000
        0.000000000000000
       -0.000093101896177
       -0.000015979329548
        0.000000000000000
        0.000000000000000
        0.000000000000000
        0.000000000000000
        0.000000000000000
        0.000000000000000
        0.000000000000000
        0.000000000000000
        0.000000000000000
        0.000000000000000
        0.000000000000000
        0.000000000000000
        0.000000000000000
        0.000000000000000
        0.000000000000000
        0.000000000000000
        0.000000000000000
        0.000000000000000
        0.000000000000000
        0.000000000000000
        0.000000000000000
        0.000000000000000
        0.000000000000000
        0.000000000000000
        0.000000000000000
        0.000000000000000
        0.000000000000000
        0.000000000000000
        0.000000000000000
        0.000000000000000
        0.000000000000000
        0.000000000000000
        0.000000000000000
        0.000000000000000
        0.000000000000000
        0.000000000000000
        0.000000000000000
        0.000000000000000
        0.000000000000000
        0.000000000000000
        0.000000000000000
        0.000000000000000
        0.000000000000000
        0.000000000000000
       -0.000141304068995
       -0.000048733629984
        0.000000000000000
        0.000000000000000
        0.000000000000000
        0.000000000000000
        0.000000000000000
        0.000000000000000
       -0.000506515973482
       -0.000427249921052
       -0.000006636919567
        0.000143987815520
        0.000000000000000
        0.000000000000000
        0.000000000000000
        0.000000000000000
       -0.000661697507442
       -0.001084112941426
       -0.000611233293897
        0.000292337767137
        0.000474247481902
        0.000216449356722
        0.000000000000000
        0.000000000000000
       -0.000319936529116
       -0.000922884113477
       -0.001226437920948
       -0.000352542210126
        0.000730142659567
        0.000740288932637
        0.000285063710043
        0.000000000000000
        0.000000000000000
       -0.000252109140517
       -0.000641987465659
       -0.000702111579993
        0.000094790739566
        0.000761775856630
        0.000558141463987
        0.000000000000000
        0.000000000000000
        0.000000000000000
        0.000000000000000
       -0.000225020804017
       -0.000182429855840
        0.000210334360515
        0.000387019058158
        0.000000000000000
        0.000000000000000
        0.000000000000000
        0.000000000000000
        0.000000000000000
        0.000000000000000
       -0.000001910319989
        0.000087603418321
        0.000000000000000
        0.000000000000000
        0.000000000000000
        0.000000000000000
        0.000000000000000
        0.000000000000000
        0.000000000000000
        0.000000000000000
        0.000000000000000
        0.000000000000000
        0.000000000000000
        0.000000000000000
        0.000000000000000
        0.000000000000000
        0.000000000000000
        0.000000000000000
        0.000000000000000
        0.000000000000000
        0.000000000000000
        0.000000000000000
        0.000000000000000
        0.000000000000000
        0.000000000000000
        0.000000000000000
        0.000000000000000
       -0.000672747929391
       -0.000667547095005
       -0.000187031201032
        0.000067205512213
        0.000000000000000
        0.000000000000000
        0.000000000000000
        0.000000000000000
       -0.001346908575245
       -0.002572781514494
       -0.002067606696743
        0.000031433502360
        0.000635197581594
        0.000308914752202
        0.000000000000000
        0.000000000000000
       -0.000950060437929
       -0.003246026571598
       -0.005616693848812
       -0.003516968936732
        0.002058148249048
        0.002222581134619
        0.000866843207737
        0.000000000000000
        0.000000000000000
       -0.001335881585778
       -0.004249812596655
       -0.007086740911954
       -0.001616904094717
        0.005177030767447
        0.003737300395185
        0.001269775581993
        0.000000000000000
        0.000000000000000
       -0.000949281008605
       -0.002726533574674
       -0.003627420671470
        0.001481713409505
        0.004568029207499
        0.002986129217138
        0.000928582075539
        0.000000000000000
        0.000000000000000
       -0.000354956844973
       -0.000876189794730
       -0.000632016408204
        0.001388822326083
        0.002233439775783
        0.001276482626899
        0.000000000000000
        0.000000000000000
        0.000000000000000
        0.000000000000000
       -0.000129834754415
        0.000045763410201
        0.000520733705152
        0.000606084585900
        0.000000000000000
        0.000000000000000
        0.000000000000000
        0.000000000000000
        0.000000000000000
        0.000000000000000
        0.000000000000000
        0.000000000000000
        0.000000000000000
        0.000000000000000
        0.000000000000000
        0.000000000000000
        0.000000000000000
        0.000000000000000
        0.000000000000000
        0.000000000000000
       -0.000274690396023
       -0.000141453419394
        0.000000000000000
        0.000000000000000
        0.000000000000000
        0.000000000000000
        0.000000000000000
       -0.001022974270717
       -0.001944396336035
       -0.001776371336555
       -0.000539100637660
        0.000137216577012
        0.000130768850414
        0.000000000000000
        0.000000000000000
       -0.001144762850980
       -0.004104632522516
       -0.007886814099402
       -0.006833653377847
       -0.000017294913450
        0.001517499086109
        0.000710492371750
        0.000000000000000
        0.000000000000000
       -0.002590644386636
       -0.009634769536461
       -0.020779098737243
       -0.015428328696027
        0.008674371849150
        0.006495613809008
        0.002086630727478
        0.000386654576117
       -0.000503166486611
       -0.003248595237764
       -0.012910379525834
       -0.029371474160917
       -0.004304490093704
        0.025422576173227
        0.012360691217687
        0.003277532195135
        0.000524158552168
       -0.000376992299375
       -0.002133872074404
       -0.007242038140807
       -0.012251338271040
        0.010930453869460
        0.019280098279157
        0.009549136149577
        0.002665565772725
        0.000000000000000
        0.000000000000000
       -0.000759465725814
       -0.001853009328969
       -0.001002534795564
        0.005764682601095
        0.007561263073064
        0.004142085344005
        0.001196023852994
        0.000000000000000
        0.000000000000000
       -0.000148092884244
       -0.000224344758894
        0.000349601247438
        0.001599516750100
        0.001896079332584
        0.001044213846215
        0.000000000000000
        0.000000000000000
        0.000000000000000
        0.000000000000000
        0.000000000000000
        0.000117452704385
        0.000253919496288
        0.000000000000000
        0.000000000000000
        0.000000000000000
        0.000000000000000
        0.000000000000000
        0.000000000000000
        0.000000000000000
       -0.000446647610309
       -0.000475725380347
       -0.000189099422125
        0.000000000000000
        0.000000000000000
        0.000000000000000
        0.000000000000000
       -0.000544428800264
       -0.001776795717988
       -0.003141633538409
       -0.002761430208433
       -0.000881036236058
        0.000116309267718
        0.000146457669117
        0.000000000000000
        0.000000000000000
       -0.001947914118053
       -0.006978466918490
       -0.014790631014809
       -0.012647775162842
       -0.000984929060233
        0.001854855659398
        0.000887314263916
        0.000000000000000
       -0.000596574056344
       -0.003994280085240
       -0.017285397858287
       -0.046661262044831
       -0.033567908306736
        0.012223156887719
        0.009520941214339
        0.002834735799215
        0.000481099777382
       -0.000781364019463
       -0.004574109042075
       -0.021204611051695
       -0.056860191204946
       -0.000167038053075
        0.057907039685091
        0.022058038338807
        0.004873303454364
        0.000846587335000
       -0.000451701431392
       -0.002711472693367
       -0.009393371658886
       -0.012665856860119
        0.033479972102178
        0.048199471079760
        0.018249872447675
        0.004303440368265
        0.000654732454648
        0.000000000000000
       -0.000871594692056
       -0.001918191499024
        0.000706112184436
        0.012626655447940
        0.015333431363322
        0.007411236674832
        0.002110686058772
        0.000000000000000
        0.000000000000000
       -0.000151630222023
       -0.000149761206202
        0.000811258987596
        0.002758102917957
        0.003255203767023
        0.001889582613127
        0.000593439202735
        0.000000000000000
        0.000000000000000
        0.000000000000000
        0.000000000000000
        0.000176978483186
        0.000475443934205
        0.000463536786872
        0.000000000000000
        0.000000000000000
        0.000000000000000
        0.000000000000000
        0.000000000000000
        0.000000000000000
       -0.000400226029505
       -0.000363655017351
        0.000000000000000
        0.000000000000000
        0.000000000000000
        0.000000000000000
        0.000000000000000
       -0.000503954022087
       -0.001596242458698
       -0.002728865941811
       -0.002270125070659
       -0.000718167783861
        0.000039026456580
        0.000000000000000
        0.000000000000000
        0.000000000000000
       -0.001720360644952
       -0.006107837044940
       -0.012581745828363
       -0.009085659568533
       -0.001066797449287
        0.001170599411675
        0.000577380643378
        0.000000000000000
       -0.000516761334994
       -0.003319438779317
       -0.014092798361694
       -0.037700326073106
       -0.019602002731705
        0.006247193561954
        0.006197843452470
        0.002052029663762
        0.000000000000000
       -0.000545109001126
       -0.003457157540843
       -0.013768389991339
       -0.029955644744033
        0.004216553889145
        0.035000051794252
        0.015410122444327
        0.003860643972344
        0.000611673679862
        0.000000000000000
       -0.001845520293080
       -0.005485742749722
       -0.004290893576574
        0.023998377345842
        0.042212086474939
        0.015710312039618
        0.003719009919566
        0.000581939425799
        0.000000000000000
       -0.000523534659946
       -0.000997258426691
        0.001508347497345
        0.010125907446919
        0.013861401943787
        0.006774567976895
        0.001926592287297
        0.000000000000000
        0.000000000000000
        0.000000000000000
       -0.000018260230454
        0.000787476992293
        0.002442098337527
        0.002963977171287
        0.001758640693801
        0.000562359380095
        0.000000000000000
        0.000000000000000
        0.000000000000000
        0.000000000000000
        0.000000000000000
        0.000383852614730
        0.000429390195848
        0.000000000000000
        0.000000000000000
        0.000000000000000
        0.000000000000000
        0.000000000000000
        0.000000000000000
        0.000000000000000
        0.000000000000000
        0.000000000000000
        0.000000000000000
        0.000000000000000
        0.000000000000000
        0.000000000000000
        0.000000000000000
       -0.000744209319597
       -0.001296977551225
       -0.001032847020622
       -0.000329828078300
        0.000000000000000
        0.000000000000000
        0.000000000000000
        0.000000000000000
       -0.000795669148320
       -0.002698016905226
       -0.004733429776450
       -0.003242782107081
       -0.000449920481687
        0.000413886451836
        0.000000000000000
        0.000000000000000
        0.000000000000000
       -0.001530545362161
       -0.005234312799236
       -0.009956859952456
       -0.004802690376943
        0.001926436416278
        0.002326555538542
        0.000844822420833
        0.000000000000000
        0.000000000000000
       -0.001483627224331
       -0.004646845820859
       -0.006997777918418
        0.001595784379815
        0.009171471535641
        0.005528791939045
        0.001728224740695
        0.000000000000000
        0.000000000000000
       -0.000718237072997
       -0.001855864377609
       -0.000761772753245
        0.006809223005804
        0.011785958781288
        0.006069485928385
        0.001770241451310
        0.000000000000000
        0.000000000000000
        0.000000000000000
       -0.000277831566185
        0.000820132365600
        0.003911660145231
        0.005437642108414
        0.003087661549917
        0.000914283876427
        0.000000000000000
        0.000000000000000
        0.000000000000000
        0.000000000000000
        0.000400493943635
        0.001177637419983
        0.001462541054653
        0.000842386264712
        0.000000000000000
        0.000000000000000
        0.000000000000000
        0.000000000000000
        0.000000000000000
        0.000000000000000
        0.000000000000000
        0.000000000000000
        0.000000000000000
        0.000000000000000
        0.000000000000000
        0.000000000000000
        0.000000000000000
        0.000000000000000
        0.000000000000000
        0.000000000000000
        0.000000000000000
        0.000000000000000
        0.000000000000000
        0.000000000000000
        0.000000000000000
        0.000000000000000
        0.000000000000000
       -0.000341531882541
       -0.000278411245414
        0.000000000000000
        0.000000000000000
        0.000000000000000
        0.000000000000000
        0.000000000000000
        0.000000000000000
       -0.000649023269995
       -0.001068784285184
       -0.000722447675985
       -0.000110762550559
        0.000000000000000
        0.000000000000000
        0.000000000000000
        0.000000000000000
       -0.000399937765814
       -0.001178599751933
       -0.001677153114380
       -0.000765399060125
        0.000416135692093
        0.000525098838808
        0.000000000000000
        0.000000000000000
        0.000000000000000
       -0.000376122493170
       -0.001003672810712
       -0.001103936629865
        0.000349214919649
        0.001644024871399
        0.001265602948208
        0.000454833161809
        0.000000000000000
        0.000000000000000
        0.000000000000000
       -0.000379536993730
       -0.000072806402316
        0.001276960294869
        0.002132538766490
        0.001421609788911
        0.000476678873787
        0.000000000000000
        0.000000000000000
        0.000000000000000
        0.000000000000000
        0.000234261987726
        0.000937340246029
        0.001282146773188
        0.000765603961406
        0.000000000000000
        0.000000000000000
        0.000000000000000
        0.000000000000000
        0.000000000000000
        0.000000000000000
        0.000331656898145
        0.000398525901567
        0.000000000000000
        0.000000000000000
        0.000000000000000
        0.000000000000000
        0.000000000000000
        0.000000000000000
        0.000000000000000
        0.000000000000000
        0.000000000000000
        0.000000000000000
        0.000000000000000
        0.000000000000000
        0.000000000000000
        0.000000000000000
        0.000000000000000
        0.000000000000000
        0.000000000000000
        0.000000000000000
        0.000000000000000
        0.000000000000000
        0.000000000000000
        0.000000000000000
        0.000000000000000
        0.000000000000000
        0.000000000000000
        0.000000000000000
        0.000000000000000
        0.000000000000000
        0.000000000000000
        0.000000000000000
        0.000000000000000
        0.000000000000000
        0.000000000000000
        0.000000000000000
        0.000000000000000
        0.000000000000000
        0.000000000000000
        0.000000000000000
        0.000000000000000
        0.000000000000000
        0.000000000000000
        0.000000000000000
       -0.000189671428943
       -0.000093756191515
        0.000000000000000
        0.000000000000000
        0.000000000000000
        0.000000000000000
        0.000000000000000
        0.000000000000000
        0.000000000000000
       -0.000126323292780
        0.000060334299209
        0.000210481446943
        0.000000000000000
        0.000000000000000
        0.000000000000000
        0.000000000000000
        0.000000000000000
        0.000000000000000
        0.000000000000000
        0.000174664153692
        0.000263075384976
        0.000000000000000
        0.000000000000000
        0.000000000000000
        0.000000000000000
        0.000000000000000
        0.000000000000000
        0.000000000000000
        0.000000000000000
        0.000000000000000
        0.000000000000000
        0.000000000000000
        0.000000000000000
        0.000000000000000
        0.000000000000000
        0.000000000000000
        0.000000000000000
        0.000000000000000
        0.000000000000000
        0.000000000000000
        0.000000000000000
        0.000000000000000
        0.000000000000000
        0.000000000000000
        0.000000000000000
        0.000000000000000
        0.000000000000000
        0.000000000000000
        0.000000000000000
        0.000000000000000
        0.000000000000000
END_DATAGRID_3D
END_BLOCK_DATAGRID_3D
