ATOMS
         C    7.558905    7.558905    7.558905
         H    8.755769    8.755769    8.755769
         H    6.362040    6.362040    8.755769
         H    8.755769    6.362040    6.362040
         H    6.362040    8.755769    6.362040
BEGIN_BLOCK_DATAGRID_3D
units: coords = b, function = sqrt(b^-3)
BEGIN_DATAGRID_3D_function
      9      9      9
0.0 0.0 0.0
   15.117809    0.000000    0.000000
    0.000000   15.117809    0.000000
    0.000000    0.000000   15.117809
        0.000000000000000
        0.000000000000000
        0.000000000000000
        0.000000000000000
        0.000000000000000
        0.000000000000000
        0.000000000000000
        0.000000000000000
        0.000000000000000
        0.000000000000000
        0.000000000000000
        0.000000000000000
        0.000000000000000
        0.000000000000000
        0.000000000000000
        0.000000000000000
        0.000000000000000
        0.000000000000000
        0.000000000000000
        0.000000000000000
        0.000000000000000
        0.000000000000000
        0.000000000000000
        0.000000000000000
        0.000000000000000
        0.000000000000000
        0.000000000000000
        0.000000000000000
        0.000000000000000
        0.000000000000000
        0.000000000000000
       -0.001120471030000
       -0.001082989119697
        0.000000000000000
        0.000000000000000
        0.000000000000000
        0.000000000000000
        0.000000000000000
        0.000000000000000
       -0.000671686393452
       -0.001307143726760
       -0.001081524261568
        0.000000000000000
        0.000000000000000
        0.000000000000000
        0.000000000000000
        0.000000000000000
        0.000000000000000
       -0.000411485856288
       -0.000633127242217
        0.000000000000000
        0.000000000000000
        0.000000000000000
        0.000000000000000
        0.000000000000000
        0.000000000000000
        0.000000000000000
        0.000000000000000
        0.000000000000000
        0.000000000000000
        0.000000000000000
        0.000000000000000
        0.000000000000000
        0.000000000000000
        0.000000000000000
        0.000000000000000
        0.000000000000000
        0.000000000000000
        0.000000000000000
        0.000000000000000
        0.000000000000000
        0.000000000000000
        0.000000000000000
        0.000000000000000
        0.000000000000000
        0.000000000000000
        0.000000000000000
        0.000000000000000
        0.000000000000000
        0.000000000000000
        0.000000000000000
        0.000000000000000
        0.000000000000000
        0.000000000000000
        0.000000000000000
        0.000000000000000
        0.000000000000000
        0.000000000000000
        0.000000000000000
        0.000000000000000
        0.000000000000000
        0.000000000000000
        0.000000000000000
        0.000000000000000
       -0.001173833730152
       -0.001177991915088
        0.000000000000000
        0.000000000000000
        0.000000000000000
        0.000000000000000
        0.000000000000000
        0.000000000000000
       -0.002006034736276
       -0.003967505866635
       -0.003958713151426
       -0.001998777811868
        0.000000000000000
        0.000000000000000
        0.000000000000000
        0.000000000000000
       -0.001076662007894
       -0.003954717025730
       -0.007536923976051
       -0.007341498107218
       -0.003812735712969
       -0.001097445550285
        0.000000000000000
        0.000000000000000
       -0.000102568961771
       -0.001047353953433
       -0.003978970202365
       -0.007585111757921
       -0.007129954924866
       -0.003613775755443
       -0.001045254160560
        0.000000000000000
        0.000000000000000
        0.000023392232352
       -0.000282438309136
       -0.001687315879637
       -0.003577716576472
       -0.003395089725978
       -0.001684384705134
        0.000000000000000
        0.000000000000000
        0.000000000000000
        0.000000000000000
        0.000100064018139
       -0.000142273768019
       -0.000702730054150
       -0.000758913798096
        0.000000000000000
        0.000000000000000
        0.000000000000000
        0.000000000000000
        0.000000000000000
        0.000000000000000
        0.000099877556071
        0.000021591619368
        0.000000000000000
        0.000000000000000
        0.000000000000000
        0.000000000000000
        0.000000000000000
        0.000000000000000
        0.000000000000000
        0.000000000000000
        0.000000000000000
        0.000000000000000
        0.000000000000000
        0.000000000000000
        0.000000000000000
        0.000000000000000
        0.000000000000000
        0.000000000000000
        0.000000000000000
        0.000000000000000
        0.000000000000000
        0.000000000000000
        0.000000000000000
        0.000000000000000
        0.000000000000000
        0.000000000000000
        0.000000000000000
       -0.001942980787089
       -0.003877397662298
       -0.003891888842536
       -0.001970662131918
        0.000000000000000
        0.000000000000000
        0.000000000000000
        0.000000000000000
       -0.001724556224412
       -0.007038052103321
       -0.014586894348836
       -0.014807516614550
       -0.007210513762307
       -0.001898127279356
        0.000000000000000
        0.000000000000000
       -0.000233964294008
       -0.002977880883590
       -0.013916305127280
       -0.033469818748621
       -0.033607043317490
       -0.014154279914240
       -0.003576078785109
        0.000000000000000
        0.000000000000000
        0.000159590347111
       -0.001692615412361
       -0.012806756761586
       -0.034729278960400
       -0.030871878517932
       -0.012851899827026
       -0.003297921498520
        0.000000000000000
        0.000000000000000
        0.000615183079423
        0.001155305385403
       -0.001289497763179
       -0.010234850595308
       -0.010863865703505
       -0.005374082195332
       -0.001464942804055
        0.000000000000000
        0.000000000000000
        0.000478763792494
        0.001382427810913
        0.001790557889766
        0.000008582986249
       -0.001330512321707
       -0.000938971985408
        0.000000000000000
        0.000000000000000
        0.000000000000000
        0.000000000000000
        0.000547360034198
        0.000917444275762
        0.000721120195430
        0.000234590518592
        0.000000000000000
        0.000000000000000
        0.000000000000000
        0.000000000000000
        0.000000000000000
        0.000000000000000
        0.000000000000000
        0.000000000000000
        0.000000000000000
        0.000000000000000
        0.000000000000000
        0.000000000000000
        0.000000000000000
        0.000000000000000
        0.000000000000000
        0.000000000000000
       -0.001042120154115
       -0.001021330214248
        0.000000000000000
        0.000000000000000
        0.000000000000000
        0.000000000000000
        0.000000000000000
       -0.000937904709967
       -0.003628193841335
       -0.007100051466869
       -0.007033485299913
       -0.003689365826495
       -0.001066452543412
        0.000000000000000
        0.000000000000000
       -0.000158244698334
       -0.002647991292663
       -0.013054843241260
       -0.032226235034739
       -0.032838042088320
       -0.013896158625684
       -0.003519522394539
        0.000000000000000
        0.000000000000000
        0.000404104933937
       -0.002426902059125
       -0.026249593659078
       -0.094463872369758
       -0.099825743151923
       -0.030926362013846
       -0.006254758735092
       -0.000864974929133
        0.000378578656287
        0.001868398425001
        0.003814296077713
       -0.013630934619591
       -0.092120822003527
       -0.082367202506723
       -0.026556142269027
       -0.005603199267673
       -0.000806447828694
        0.000416249051012
        0.002446963930728
        0.009014053317414
        0.019077697278919
       -0.001622487977015
       -0.014350508600644
       -0.007887657660931
       -0.002263671709729
        0.000000000000000
        0.000000000000000
        0.001518531628021
        0.005261163724466
        0.010897371247932
        0.009413831679208
        0.002705240452636
       -0.000197049105765
       -0.000281100602637
        0.000000000000000
        0.000000000000000
        0.000518416780681
        0.001680832648152
        0.003196477630375
        0.003325312349878
        0.001746004029897
        0.000493295660359
        0.000000000000000
        0.000000000000000
        0.000000000000000
        0.000000000000000
        0.000000000000000
        0.000565509892708
        0.000606391734644
        0.000000000000000
        0.000000000000000
        0.000000000000000
        0.000000000000000
        0.000000000000000
        0.000000000000000
        0.000000000000000
       -0.000556656950218
       -0.001151485532171
       -0.000987703517154
        0.000000000000000
        0.000000000000000
        0.000000000000000
        0.000000000000000
       -0.000015257409708
       -0.000719243928967
       -0.003252026580959
       -0.006681863373939
       -0.006533095408875
       -0.003385367750348
       -0.000995101919071
        0.000000000000000
        0.000000000000000
        0.000397674279811
       -0.000644334335736
       -0.009883630796846
       -0.030593163284556
       -0.028588336122472
       -0.012162764866052
       -0.003159576325452
        0.000000000000000
        0.000415288774919
        0.002158748602868
        0.005493815592843
       -0.007075073830744
       -0.081148424429577
       -0.077471752966938
       -0.025516113413683
       -0.005443133358081
       -0.000790990079779
        0.000776026853034
        0.004493811004085
        0.020517635657813
        0.054406407376180
        0.000005937450874
       -0.054162945912785
       -0.020407166204441
       -0.004442846110800
       -0.000763878016079
        0.000625471247642
        0.004426355448670
        0.020338329623928
        0.063853959081283
        0.081217912855494
        0.020967755756599
       -0.000159164788049
       -0.001067292026460
       -0.000234208946337
        0.000000000000000
        0.002369196519653
        0.009266838110745
        0.023367799112243
        0.030613098867959
        0.015174904883814
        0.003603774141684
        0.000423425124752
        0.000000000000000
        0.000000000000000
        0.000698173644727
        0.002586954519019
        0.005483622292800
        0.006684737056336
        0.004314186927604
        0.001533051871896
        0.000319686218059
        0.000000000000000
        0.000000000000000
        0.000000000000000
        0.000000000000000
        0.000814588964105
        0.001151881794025
        0.000730913646462
        0.000000000000000
        0.000000000000000
        0.000000000000000
        0.000000000000000
        0.000000000000000
        0.000000000000000
       -0.000295009836231
       -0.000502628270415
        0.000000000000000
        0.000000000000000
        0.000000000000000
        0.000000000000000
        0.000000000000000
        0.000121334323979
        0.000084250948827
       -0.000918043061257
       -0.002690969470611
       -0.002846822814067
       -0.001494277956878
        0.000000000000000
        0.000000000000000
        0.000000000000000
        0.000915189211105
        0.002454157822031
        0.002108680292034
       -0.006272197996021
       -0.008775905349686
       -0.004709520940139
       -0.001337845536486
        0.000000000000000
        0.000471182815962
        0.002908755719117
        0.011642762079370
        0.028732804766660
        0.009828856877490
       -0.009518011641150
       -0.006660984575746
       -0.002041693159925
        0.000000000000000
        0.000662181366273
        0.004716705626537
        0.022017849139058
        0.070409819870131
        0.092190310429442
        0.025863205296384
        0.000880864067296
       -0.000907226116868
       -0.000218751197422
        0.000000000000000
        0.003949436081896
        0.017078032796734
        0.050246078676680
        0.086359683818860
        0.052243801814066
        0.010395112797429
        0.000960171024584
       -0.000009197288468
        0.000000000000000
        0.001794939177394
        0.007593383733060
        0.019162009117980
        0.029111758561578
        0.019896920529342
        0.006236662735135
        0.001112941510539
        0.000000000000000
        0.000000000000000
        0.000000000000000
        0.001946629172263
        0.004736136304963
        0.006470223943678
        0.004767202957970
        0.001938760149885
        0.000433744835993
        0.000000000000000
        0.000000000000000
        0.000000000000000
        0.000000000000000
        0.000000000000000
        0.000938806633152
        0.000751941842455
        0.000000000000000
        0.000000000000000
        0.000000000000000
        0.000000000000000
        0.000000000000000
        0.000000000000000
        0.000000000000000
        0.000000000000000
        0.000000000000000
        0.000000000000000
        0.000000000000000
        0.000000000000000
        0.000000000000000
        0.000000000000000
        0.000299467677903
        0.000280777738631
       -0.000236588605609
       -0.000493194854858
        0.000000000000000
        0.000000000000000
        0.000000000000000
        0.000000000000000
        0.000650157292817
        0.002082435733001
        0.003347235443476
        0.001745279386003
       -0.000336374210935
       -0.000623069608705
        0.000000000000000
        0.000000000000000
        0.000000000000000
        0.001818537759702
        0.006560016161095
        0.014295549303144
        0.013376484278495
        0.004793200806455
        0.000467512149428
       -0.000154003335068
        0.000000000000000
        0.000000000000000
        0.002607280452352
        0.010315119187371
        0.026290925076982
        0.034749214543803
        0.017458447279274
        0.004292909102658
        0.000561770297820
        0.000000000000000
        0.000000000000000
        0.001870658773069
        0.007923273323986
        0.020023471004000
        0.030355342275461
        0.020665921758512
        0.006494784023691
        0.001169497901109
        0.000000000000000
        0.000000000000000
        0.000000000000000
        0.003298531323240
        0.008716403994239
        0.012842442435510
        0.009695874387173
        0.003772518592563
        0.000781551427585
        0.000000000000000
        0.000000000000000
        0.000000000000000
        0.000000000000000
        0.002203270142501
        0.003394926311089
        0.002699832102829
        0.001130212407400
        0.000000000000000
        0.000000000000000
        0.000000000000000
        0.000000000000000
        0.000000000000000
        0.000000000000000
        0.000000000000000
        0.000000000000000
        0.000000000000000
        0.000000000000000
        0.000000000000000
        0.000000000000000
        0.000000000000000
        0.000000000000000
        0.000000000000000
        0.000000000000000
        0.000000000000000
        0.000000000000000
        0.000000000000000
        0.000000000000000
        0.000000000000000
        0.000000000000000
        0.000000000000000
        0.000228679075963
        0.000158962832543
        0.000000000000000
        0.000000000000000
        0.000000000000000
        0.000000000000000
        0.000000000000000
        0.000000000000000
        0.000746763693962
        0.001340495782411
        0.001187261643971
        0.000500309461830
        0.000000000000000
        0.000000000000000
        0.000000000000000
        0.000000000000000
        0.000616358872308
        0.002047521906115
        0.003965750448755
        0.004212059455739
        0.002294270941808
        0.000683402408615
        0.000000000000000
        0.000000000000000
        0.000000000000000
        0.000785485196790
        0.002915064543486
        0.006210565914206
        0.007587985440318
        0.004911046443594
        0.001761459876991
        0.000369838459548
        0.000000000000000
        0.000000000000000
        0.000000000000000
        0.002085386470190
        0.005062659489359
        0.006907096452859
        0.005075215765275
        0.002062130036359
        0.000464737842866
        0.000000000000000
        0.000000000000000
        0.000000000000000
        0.000000000000000
        0.002266324091687
        0.003485034515426
        0.002766656411718
        0.001158328087350
        0.000000000000000
        0.000000000000000
        0.000000000000000
        0.000000000000000
        0.000000000000000
        0.000000000000000
        0.000993810366683
        0.000850753027181
        0.000000000000000
        0.000000000000000
        0.000000000000000
        0.000000000000000
        0.000000000000000
        0.000000000000000
        0.000000000000000
        0.000000000000000
        0.000000000000000
        0.000000000000000
        0.000000000000000
        0.000000000000000
        0.000000000000000
        0.000000000000000
        0.000000000000000
        0.000000000000000
        0.000000000000000
        0.000000000000000
        0.000000000000000
        0.000000000000000
        0.000000000000000
        0.000000000000000
        0.000000000000000
        0.000000000000000
        0.000000000000000
        0.000000000000000
        0.000000000000000
        0.000000000000000
        0.000000000000000
        0.000000000000000
        0.000000000000000
        0.000000000000000
        0.000000000000000
        0.000000000000000
        0.000000000000000
        0.000000000000000
        0.000000000000000
        0.000000000000000
        0.000000000000000
        0.000000000000000
        0.000000000000000
        0.000000000000000
        0.000681985912764
        0.000736890706446
        0.000000000000000
        0.000000000000000
        0.000000000000000
        0.000000000000000
        0.000000000000000
        0.000000000000000
        0.000000000000000
        0.000929618407338
        0.001307539988613
        0.000824734390876
        0.000000000000000
        0.000000000000000
        0.000000000000000
        0.000000000000000
        0.000000000000000
        0.000000000000000
        0.000000000000000
        0.001017157509038
        0.000813600747903
        0.000000000000000
        0.000000000000000
        0.000000000000000
        0.000000000000000
        0.000000000000000
        0.000000000000000
        0.000000000000000
        0.000000000000000
        0.000000000000000
        0.000000000000000
        0.000000000000000
        0.000000000000000
        0.000000000000000
        0.000000000000000
        0.000000000000000
        0.000000000000000
        0.000000000000000
        0.000000000000000
        0.000000000000000
        0.000000000000000
        0.000000000000000
        0.000000000000000
        0.000000000000000
        0.000000000000000
        0.000000000000000
        0.000000000000000
        0.000000000000000
        0.000000000000000
        0.000000000000000
        0.000000000000000
END_DATAGRID_3D
END_BLOCK_DATAGRID_3D
