ATOMS
         C    7.558905    7.558905    7.558905
         H    8.755769    8.755769    8.755769
         H    6.362040    6.362040    8.755769
         H    8.755769    6.362040    6.362040
         H    6.362040    8.755769    6.362040
BEGIN_BLOCK_DATAGRID_3D
units: coords = b, function = sqrt(b^-3)
BEGIN_DATAGRID_3D_function
      9      9      9
0.0 0.0 0.0
   15.117809    0.000000    0.000000
    0.000000   15.117809    0.000000
    0.000000    0.000000   15.117809
        0.000000000000000
        0.000000000000000
        0.000000000000000
        0.000000000000000
        0.000000000000000
        0.000000000000000
        0.000000000000000
        0.000000000000000
        0.000000000000000
        0.000000000000000
        0.000000000000000
        0.000000000000000
        0.000000000000000
        0.000000000000000
        0.000000000000000
        0.000000000000000
        0.000000000000000
        0.000000000000000
        0.000000000000000
        0.000000000000000
        0.000000000000000
        0.000000000000000
        0.000000000000000
        0.000000000000000
        0.000000000000000
        0.000000000000000
        0.000000000000000
        0.000000000000000
        0.000000000000000
        0.000000000000000
        0.000000000000000
       -0.000556188996800
       -0.000543148619581
        0.000000000000000
        0.000000000000000
        0.000000000000000
        0.000000000000000
        0.000000000000000
        0.000000000000000
       -0.000329308319554
       -0.000648288486185
       -0.000542418586699
        0.000000000000000
        0.000000000000000
        0.000000000000000
        0.000000000000000
        0.000000000000000
        0.000000000000000
       -0.000201728500695
       -0.000313590682785
        0.000000000000000
        0.000000000000000
        0.000000000000000
        0.000000000000000
        0.000000000000000
        0.000000000000000
        0.000000000000000
        0.000000000000000
        0.000000000000000
        0.000000000000000
        0.000000000000000
        0.000000000000000
        0.000000000000000
        0.000000000000000
        0.000000000000000
        0.000000000000000
        0.000000000000000
        0.000000000000000
        0.000000000000000
        0.000000000000000
        0.000000000000000
        0.000000000000000
        0.000000000000000
        0.000000000000000
        0.000000000000000
        0.000000000000000
        0.000000000000000
        0.000000000000000
        0.000000000000000
        0.000000000000000
        0.000000000000000
        0.000000000000000
        0.000000000000000
        0.000000000000000
        0.000000000000000
        0.000000000000000
        0.000000000000000
        0.000000000000000
        0.000000000000000
        0.000000000000000
        0.000000000000000
        0.000000000000000
        0.000000000000000
        0.000000000000000
       -0.000582636260572
       -0.000590800303913
        0.000000000000000
        0.000000000000000
        0.000000000000000
        0.000000000000000
        0.000000000000000
        0.000000000000000
       -0.000983304041268
       -0.001967526535876
       -0.001987130963254
       -0.001014915676733
        0.000000000000000
        0.000000000000000
        0.000000000000000
        0.000000000000000
       -0.000521251812858
       -0.001937516269505
       -0.003737603951539
       -0.003685045488557
       -0.001937016593108
       -0.000564017748546
        0.000000000000000
        0.000000000000000
       -0.000049046343609
       -0.000506903454757
       -0.001949288084379
       -0.003761497143422
       -0.003578916371598
       -0.001835832219261
       -0.000537213839930
        0.000000000000000
        0.000000000000000
        0.000011215787359
       -0.000136736324912
       -0.000826650178632
       -0.001774178658805
       -0.001704148160960
       -0.000855255693918
        0.000000000000000
        0.000000000000000
        0.000000000000000
        0.000000000000000
        0.000048476779717
       -0.000069699038787
       -0.000348534665527
       -0.000380632681307
        0.000000000000000
        0.000000000000000
        0.000000000000000
        0.000000000000000
        0.000000000000000
        0.000000000000000
        0.000048983602180
        0.000010726908739
        0.000000000000000
        0.000000000000000
        0.000000000000000
        0.000000000000000
        0.000000000000000
        0.000000000000000
        0.000000000000000
        0.000000000000000
        0.000000000000000
        0.000000000000000
        0.000000000000000
        0.000000000000000
        0.000000000000000
        0.000000000000000
        0.000000000000000
        0.000000000000000
        0.000000000000000
        0.000000000000000
        0.000000000000000
        0.000000000000000
        0.000000000000000
        0.000000000000000
        0.000000000000000
        0.000000000000000
        0.000000000000000
       -0.000952393328548
       -0.001922843449096
       -0.001953586776276
       -0.001000638062622
        0.000000000000000
        0.000000000000000
        0.000000000000000
        0.000000000000000
       -0.000834950571234
       -0.003448277032913
       -0.007233878105192
       -0.007432339190910
       -0.003662896361239
       -0.000975518851662
        0.000000000000000
        0.000000000000000
       -0.000111943513695
       -0.001441039440731
       -0.006819521018739
       -0.016599184743830
       -0.016866341430446
       -0.007188406761474
       -0.001838555197031
        0.000000000000000
        0.000000000000000
        0.000076337465489
       -0.000819027839278
       -0.006276773350469
       -0.017222472373649
       -0.015491327062585
       -0.006527575322917
       -0.001695310585087
        0.000000000000000
        0.000000000000000
        0.000294079570388
        0.000559346110942
       -0.000631885776894
       -0.005075323218349
       -0.005452034074630
       -0.002729855113351
       -0.000752843876201
        0.000000000000000
        0.000000000000000
        0.000228922438312
        0.000669002932186
        0.000877222741388
        0.000004253801077
       -0.000667837085181
       -0.000476702344205
        0.000000000000000
        0.000000000000000
        0.000000000000000
        0.000000000000000
        0.000265022183462
        0.000449433787226
        0.000357614520071
        0.000117734814243
        0.000000000000000
        0.000000000000000
        0.000000000000000
        0.000000000000000
        0.000000000000000
        0.000000000000000
        0.000000000000000
        0.000000000000000
        0.000000000000000
        0.000000000000000
        0.000000000000000
        0.000000000000000
        0.000000000000000
        0.000000000000000
        0.000000000000000
        0.000000000000000
       -0.000517290552827
       -0.000512222500040
        0.000000000000000
        0.000000000000000
        0.000000000000000
        0.000000000000000
        0.000000000000000
       -0.000454072658399
       -0.001777547190617
       -0.003520947369965
       -0.003530440114792
       -0.001874345938588
       -0.000548085519982
        0.000000000000000
        0.000000000000000
       -0.000075738739933
       -0.001281382281291
       -0.006397393789820
       -0.015982449655914
       -0.016480414266131
       -0.007057297261341
       -0.001809481871458
        0.000000000000000
        0.000000000000000
        0.000193005050138
       -0.001172700600785
       -0.012874522945663
       -0.046857526308991
       -0.050084869494757
       -0.015690331602495
       -0.003218611556596
       -0.000449332610326
        0.000178664315530
        0.000892641655255
        0.001850617522481
       -0.006693787508690
       -0.045679387248206
       -0.041308669198645
       -0.013476963054975
       -0.002882495976628
       -0.000418956623051
        0.000196649060171
        0.001168932583380
        0.004367476017283
        0.009350841600817
       -0.000804695385736
       -0.007199559258507
       -0.004005288098151
       -0.001163629845702
        0.000000000000000
        0.000000000000000
        0.000725903637266
        0.002546587531912
        0.005339650747216
        0.004668303045167
        0.001357483061901
       -0.000100089646130
       -0.000144421865629
        0.000000000000000
        0.000000000000000
        0.000247849646048
        0.000813388288264
        0.001565964913522
        0.001649027817772
        0.000876358175814
        0.000250544375515
        0.000000000000000
        0.000000000000000
        0.000000000000000
        0.000000000000000
        0.000000000000000
        0.000277276891163
        0.000300421039053
        0.000000000000000
        0.000000000000000
        0.000000000000000
        0.000000000000000
        0.000000000000000
        0.000000000000000
        0.000000000000000
       -0.000272909572315
       -0.000571099147923
       -0.000495363128126
        0.000000000000000
        0.000000000000000
        0.000000000000000
        0.000000000000000
       -0.000007302167146
       -0.000348119205658
       -0.001593158835883
       -0.003313566151556
       -0.003279318814012
       -0.001719803649063
       -0.000511440146244
        0.000000000000000
        0.000000000000000
        0.000190144474959
       -0.000311636529389
       -0.004844240523113
       -0.015171289827111
       -0.014345515061615
       -0.006177536077328
       -0.001624192177890
        0.000000000000000
        0.000196033385984
        0.001031301216673
        0.002664149036800
       -0.003478763878933
       -0.040237875664950
       -0.038854246669757
       -0.012948913582959
       -0.002800158305072
       -0.000410949874829
        0.000366562552245
        0.002145859091213
        0.009947753099535
        0.026674912448061
        0.000078362829017
       -0.027166022149989
       -0.010348122807798
       -0.002286220644413
       -0.000397160870588
        0.000295745770298
        0.002114579310231
        0.009851704779582
        0.031310990064758
        0.040279129317249
        0.010508082565159
       -0.000079252649820
       -0.000548585697916
       -0.000121904916951
        0.000000000000000
        0.001132576202942
        0.004485340123035
        0.011451733370245
        0.015181197752744
        0.007614179225686
        0.001830519359422
        0.000217735491195
        0.000000000000000
        0.000000000000000
        0.000333845449620
        0.001251927937038
        0.002686411176349
        0.003315127088660
        0.002165521802720
        0.000778776382571
        0.000164331143284
        0.000000000000000
        0.000000000000000
        0.000000000000000
        0.000000000000000
        0.000399419881259
        0.000571231183202
        0.000366615888238
        0.000000000000000
        0.000000000000000
        0.000000000000000
        0.000000000000000
        0.000000000000000
        0.000000000000000
       -0.000144618988852
       -0.000248940638534
        0.000000000000000
        0.000000000000000
        0.000000000000000
        0.000000000000000
        0.000000000000000
        0.000058046162070
        0.000040706705161
       -0.000449776661808
       -0.001334424263708
       -0.001428953704740
       -0.000758726631412
        0.000000000000000
        0.000000000000000
        0.000000000000000
        0.000437461274543
        0.001188097060883
        0.001033164549994
       -0.003110327808518
       -0.004404242107905
       -0.002392258650961
       -0.000687538222321
        0.000000000000000
        0.000222639011883
        0.001389387860017
        0.005641369956285
        0.014083062590824
        0.004872792973655
       -0.004776099993910
       -0.003382117629909
       -0.001049543247228
        0.000000000000000
        0.000313114840752
        0.002253238871649
        0.010665236293901
        0.034526013694514
        0.045720640900505
        0.012962505094047
        0.000448796822196
       -0.000466248026360
       -0.000113898168729
        0.000000000000000
        0.001888139981719
        0.008266210714917
        0.024635648539389
        0.042837045678079
        0.026212423908100
        0.005272830090670
        0.000495002073704
       -0.000005065443062
        0.000000000000000
        0.000858389819682
        0.003674840542786
        0.009389734029224
        0.014437949238518
        0.009985706191289
        0.003167226576882
        0.000572342127333
        0.000000000000000
        0.000000000000000
        0.000000000000000
        0.000942548665392
        0.002320294612843
        0.003208633797167
        0.002392853907972
        0.000984939384701
        0.000222917164542
        0.000000000000000
        0.000000000000000
        0.000000000000000
        0.000000000000000
        0.000000000000000
        0.000466079106560
        0.000377142259546
        0.000000000000000
        0.000000000000000
        0.000000000000000
        0.000000000000000
        0.000000000000000
        0.000000000000000
        0.000000000000000
        0.000000000000000
        0.000000000000000
        0.000000000000000
        0.000000000000000
        0.000000000000000
        0.000000000000000
        0.000000000000000
        0.000145019511015
        0.000137550304074
       -0.000117365981257
       -0.000247335471526
        0.000000000000000
        0.000000000000000
        0.000000000000000
        0.000000000000000
        0.000310872574352
        0.001007770373921
        0.001639877609270
        0.000865497316399
       -0.000168868174004
       -0.000316303205454
        0.000000000000000
        0.000000000000000
        0.000000000000000
        0.000869285341421
        0.003175338481853
        0.007004701074104
        0.006633298454998
        0.002405275028626
        0.000237506816260
       -0.000079116211749
        0.000000000000000
        0.000000000000000
        0.001246383212412
        0.004992731432925
        0.012884266197601
        0.017232380299282
        0.008759991226655
        0.002180558605011
        0.000288853898392
        0.000000000000000
        0.000000000000000
        0.000894594593443
        0.003834497702225
        0.009811861258143
        0.015054684326433
        0.010371633355604
        0.003298336077015
        0.000601415452906
        0.000000000000000
        0.000000000000000
        0.000000000000000
        0.001597167512561
        0.004270500131503
        0.006368774361332
        0.004866623001821
        0.001916385502146
        0.000401677722503
        0.000000000000000
        0.000000000000000
        0.000000000000000
        0.000000000000000
        0.001080116276357
        0.001683543959048
        0.001355204798464
        0.000573919817417
        0.000000000000000
        0.000000000000000
        0.000000000000000
        0.000000000000000
        0.000000000000000
        0.000000000000000
        0.000000000000000
        0.000000000000000
        0.000000000000000
        0.000000000000000
        0.000000000000000
        0.000000000000000
        0.000000000000000
        0.000000000000000
        0.000000000000000
        0.000000000000000
        0.000000000000000
        0.000000000000000
        0.000000000000000
        0.000000000000000
        0.000000000000000
        0.000000000000000
        0.000000000000000
        0.000112135987630
        0.000078787072383
        0.000000000000000
        0.000000000000000
        0.000000000000000
        0.000000000000000
        0.000000000000000
        0.000000000000000
        0.000361564914761
        0.000656683130087
        0.000588783204341
        0.000251032024024
        0.000000000000000
        0.000000000000000
        0.000000000000000
        0.000000000000000
        0.000294680020759
        0.000990831318337
        0.001942838430346
        0.002088782212870
        0.001151552632034
        0.000347073438021
        0.000000000000000
        0.000000000000000
        0.000000000000000
        0.000375589626083
        0.001410712186137
        0.003042540424844
        0.003763058080526
        0.002465119360306
        0.000894804952769
        0.000190104836970
        0.000000000000000
        0.000000000000000
        0.000000000000000
        0.001009727819851
        0.002480263691731
        0.003425290378741
        0.002547459281737
        0.001047610039220
        0.000238849393106
        0.000000000000000
        0.000000000000000
        0.000000000000000
        0.000000000000000
        0.001111026989077
        0.001728227045828
        0.001388748985442
        0.000588197431529
        0.000000000000000
        0.000000000000000
        0.000000000000000
        0.000000000000000
        0.000000000000000
        0.000000000000000
        0.000493335733363
        0.000426701696051
        0.000000000000000
        0.000000000000000
        0.000000000000000
        0.000000000000000
        0.000000000000000
        0.000000000000000
        0.000000000000000
        0.000000000000000
        0.000000000000000
        0.000000000000000
        0.000000000000000
        0.000000000000000
        0.000000000000000
        0.000000000000000
        0.000000000000000
        0.000000000000000
        0.000000000000000
        0.000000000000000
        0.000000000000000
        0.000000000000000
        0.000000000000000
        0.000000000000000
        0.000000000000000
        0.000000000000000
        0.000000000000000
        0.000000000000000
        0.000000000000000
        0.000000000000000
        0.000000000000000
        0.000000000000000
        0.000000000000000
        0.000000000000000
        0.000000000000000
        0.000000000000000
        0.000000000000000
        0.000000000000000
        0.000000000000000
        0.000000000000000
        0.000000000000000
        0.000000000000000
        0.000000000000000
        0.000000000000000
        0.000334386403006
        0.000365071083304
        0.000000000000000
        0.000000000000000
        0.000000000000000
        0.000000000000000
        0.000000000000000
        0.000000000000000
        0.000000000000000
        0.000455818628497
        0.000648420521464
        0.000413671346811
        0.000000000000000
        0.000000000000000
        0.000000000000000
        0.000000000000000
        0.000000000000000
        0.000000000000000
        0.000000000000000
        0.000504977550533
        0.000408068379087
        0.000000000000000
        0.000000000000000
        0.000000000000000
        0.000000000000000
        0.000000000000000
        0.000000000000000
        0.000000000000000
        0.000000000000000
        0.000000000000000
        0.000000000000000
        0.000000000000000
        0.000000000000000
        0.000000000000000
        0.000000000000000
        0.000000000000000
        0.000000000000000
        0.000000000000000
        0.000000000000000
        0.000000000000000
        0.000000000000000
        0.000000000000000
        0.000000000000000
        0.000000000000000
        0.000000000000000
        0.000000000000000
        0.000000000000000
        0.000000000000000
        0.000000000000000
        0.000000000000000
        0.000000000000000
END_DATAGRID_3D
END_BLOCK_DATAGRID_3D
