ATOMS
         C    7.558905    7.558905    7.558905
         H    8.755769    8.755769    8.755769
         H    6.362040    6.362040    8.755769
         H    8.755769    6.362040    6.362040
         H    6.362040    8.755769    6.362040
BEGIN_BLOCK_DATAGRID_3D
units: coords = b, function = sqrt(b^-3)
BEGIN_DATAGRID_3D_function
      9      9      9
0.0 0.0 0.0
   15.117809    0.000000    0.000000
    0.000000   15.117809    0.000000
    0.000000    0.000000   15.117809
        0.000000000000000
        0.000000000000000
        0.000000000000000
        0.000000000000000
        0.000000000000000
        0.000000000000000
        0.000000000000000
        0.000000000000000
        0.000000000000000
        0.000000000000000
        0.000000000000000
        0.000000000000000
        0.000000000000000
        0.000000000000000
        0.000000000000000
        0.000000000000000
        0.000000000000000
        0.000000000000000
        0.000000000000000
        0.000000000000000
        0.000000000000000
        0.000000000000000
        0.000000000000000
        0.000000000000000
        0.000000000000000
        0.000000000000000
        0.000000000000000
        0.000000000000000
        0.000000000000000
        0.000000000000000
        0.000000000000000
        0.001190154496393
        0.001143652278953
        0.000000000000000
        0.000000000000000
        0.000000000000000
        0.000000000000000
        0.000000000000000
        0.000000000000000
        0.000680531619410
        0.001337277201761
        0.001117006045274
        0.000000000000000
        0.000000000000000
        0.000000000000000
        0.000000000000000
        0.000000000000000
        0.000000000000000
        0.000382365813082
        0.000607383168291
        0.000000000000000
        0.000000000000000
        0.000000000000000
        0.000000000000000
        0.000000000000000
        0.000000000000000
        0.000000000000000
        0.000000000000000
        0.000000000000000
        0.000000000000000
        0.000000000000000
        0.000000000000000
        0.000000000000000
        0.000000000000000
        0.000000000000000
        0.000000000000000
        0.000000000000000
        0.000000000000000
        0.000000000000000
        0.000000000000000
        0.000000000000000
        0.000000000000000
        0.000000000000000
        0.000000000000000
        0.000000000000000
        0.000000000000000
        0.000000000000000
        0.000000000000000
        0.000000000000000
        0.000000000000000
        0.000000000000000
        0.000000000000000
        0.000000000000000
        0.000000000000000
        0.000000000000000
        0.000000000000000
        0.000000000000000
        0.000000000000000
        0.000000000000000
        0.000000000000000
        0.000000000000000
        0.000000000000000
        0.000000000000000
        0.000000000000000
        0.001307611829487
        0.001302263676036
        0.000000000000000
        0.000000000000000
        0.000000000000000
        0.000000000000000
        0.000000000000000
        0.000000000000000
        0.002244834114104
        0.004374596764374
        0.004308092709133
        0.002164112958496
        0.000000000000000
        0.000000000000000
        0.000000000000000
        0.000000000000000
        0.001192479271946
        0.004295728026215
        0.008080963111945
        0.007830237785129
        0.004041736269339
        0.001156286219778
        0.000000000000000
        0.000000000000000
        0.000099818082944
        0.001063493277050
        0.004048621599168
        0.007760665329302
        0.007322834289616
        0.003719571352188
        0.001071650094912
        0.000000000000000
        0.000000000000000
       -0.000056695651893
        0.000148843119398
        0.001412316314628
        0.003290492776839
        0.003242439373425
        0.001643458810740
        0.000000000000000
        0.000000000000000
        0.000000000000000
        0.000000000000000
       -0.000214311027997
       -0.000117513320397
        0.000408467864864
        0.000591103968582
        0.000000000000000
        0.000000000000000
        0.000000000000000
        0.000000000000000
        0.000000000000000
        0.000000000000000
       -0.000202673108151
       -0.000136143651631
        0.000000000000000
        0.000000000000000
        0.000000000000000
        0.000000000000000
        0.000000000000000
        0.000000000000000
        0.000000000000000
        0.000000000000000
        0.000000000000000
        0.000000000000000
        0.000000000000000
        0.000000000000000
        0.000000000000000
        0.000000000000000
        0.000000000000000
        0.000000000000000
        0.000000000000000
        0.000000000000000
        0.000000000000000
        0.000000000000000
        0.000000000000000
        0.000000000000000
        0.000000000000000
        0.000000000000000
        0.000000000000000
        0.002293673016977
        0.004444237132691
        0.004359764494734
        0.002186141307376
        0.000000000000000
        0.000000000000000
        0.000000000000000
        0.000000000000000
        0.002114897846092
        0.008177281624802
        0.016416459450786
        0.016337465984416
        0.007853988462185
        0.002051472876173
        0.000000000000000
        0.000000000000000
        0.000350532567088
        0.003561683486003
        0.015635857884957
        0.036660064341938
        0.036251551716149
        0.015117053010239
        0.003777517002805
        0.000000000000000
        0.000000000000000
       -0.000137055367155
        0.001778537038917
        0.013160310956110
        0.035711250859545
        0.031728612043492
        0.013154478546104
        0.003363471271193
        0.000000000000000
        0.000000000000000
       -0.000741940396642
       -0.001782622168727
       -0.000467335457930
        0.008228858657664
        0.009818858595718
        0.005026583275182
        0.001393725248306
        0.000000000000000
        0.000000000000000
       -0.000594063533918
       -0.001885806230196
       -0.003003035142904
       -0.001483443865765
        0.000410985136383
        0.000619301346078
        0.000000000000000
        0.000000000000000
        0.000000000000000
        0.000000000000000
       -0.000728731965121
       -0.001324187888572
       -0.001217821228653
       -0.000549415201583
        0.000000000000000
        0.000000000000000
        0.000000000000000
        0.000000000000000
        0.000000000000000
        0.000000000000000
        0.000000000000000
        0.000000000000000
        0.000000000000000
        0.000000000000000
        0.000000000000000
        0.000000000000000
        0.000000000000000
        0.000000000000000
        0.000000000000000
        0.000000000000000
        0.001250618494288
        0.001191052872111
        0.000000000000000
        0.000000000000000
        0.000000000000000
        0.000000000000000
        0.000000000000000
        0.001299015397898
        0.004546820112019
        0.008417146637980
        0.008067788366719
        0.004136977230950
        0.001180164439092
        0.000000000000000
        0.000000000000000
        0.000408229790167
        0.003814741850718
        0.016298877956437
        0.037620738368079
        0.036845854301977
        0.015316681702221
        0.003821086178815
        0.000000000000000
        0.000000000000000
       -0.000032914548056
        0.004205880313959
        0.032427785175600
        0.107538011455290
        0.109345417021507
        0.033212636155187
        0.006615543156292
        0.000901273390523
       -0.000361823159152
       -0.001746934715952
       -0.003401001505100
        0.015037636441485
        0.095886449492083
        0.084238506930806
        0.026816287384866
        0.005603788515683
        0.000807828551416
       -0.000434785491900
       -0.002682880703304
       -0.010712674201969
       -0.026254720089721
       -0.008261868082999
        0.009495764084621
        0.006428562035522
        0.001958501418279
        0.000000000000000
        0.000000000000000
       -0.001759397332497
       -0.006444486721888
       -0.014345892348759
       -0.014205452488313
       -0.005664435606956
       -0.000883007218188
        0.000046340579223
        0.000000000000000
        0.000000000000000
       -0.000614316017531
       -0.002075288384632
       -0.004135125913731
       -0.004560292838249
       -0.002621233241796
       -0.000844445028509
        0.000000000000000
        0.000000000000000
        0.000000000000000
        0.000000000000000
        0.000000000000000
       -0.000724564973488
       -0.000804613102024
        0.000000000000000
        0.000000000000000
        0.000000000000000
        0.000000000000000
        0.000000000000000
        0.000000000000000
        0.000000000000000
        0.000768936596565
        0.001456929728840
        0.001189435279467
        0.000000000000000
        0.000000000000000
        0.000000000000000
        0.000000000000000
        0.000166037519997
        0.001314670774187
        0.004605885409601
        0.008455048825290
        0.007783028513962
        0.003896357308938
        0.001110247465989
        0.000000000000000
        0.000000000000000
        0.000044481761665
        0.002581087130363
        0.015409400694405
        0.038906505668993
        0.033495946923577
        0.013688056109644
        0.003470616859627
        0.000000000000000
       -0.000333882179891
       -0.001525854431554
       -0.002112585792945
        0.020109133771320
        0.104465864425082
        0.088049716505340
        0.027622948238810
        0.005727799213994
        0.000819793787714
       -0.000725444214460
       -0.004209994574112
       -0.019372588041621
       -0.052016343311235
        0.000000000000001
        0.052016343311233
        0.019372588041619
        0.004209994574112
        0.000725444214459
       -0.000641243469002
       -0.004642916615792
       -0.022238692640947
       -0.073964313346981
       -0.104465864425084
       -0.034194536929684
       -0.003271669804920
        0.000440971833351
        0.000155331861180
        0.000000000000000
       -0.002639191787452
       -0.010681927963004
       -0.028111691325714
       -0.038906505668994
       -0.020793656292270
       -0.005587215277003
       -0.000875906833840
        0.000000000000000
        0.000000000000000
       -0.000801533893471
       -0.003064932236763
       -0.006698145915760
       -0.008455048825290
       -0.005690768007804
       -0.002146095846362
       -0.000474751092514
        0.000000000000000
        0.000000000000000
        0.000000000000000
        0.000000000000000
       -0.001010884960755
       -0.001456929728840
       -0.000947486915276
        0.000000000000000
        0.000000000000000
        0.000000000000000
        0.000000000000000
        0.000000000000000
        0.000000000000000
        0.000471505288685
        0.000707753381744
        0.000000000000000
        0.000000000000000
        0.000000000000000
        0.000000000000000
        0.000000000000000
        0.000017811706611
        0.000428553150091
        0.002001740838307
        0.003971767285583
        0.003665822839677
        0.001790667501334
        0.000000000000000
        0.000000000000000
        0.000000000000000
       -0.000513902151550
       -0.000789156156601
        0.002140145325609
        0.011284609249904
        0.011433392608745
        0.005541957827629
        0.001492095036026
        0.000000000000000
       -0.000393046609454
       -0.002331006761216
       -0.008699496004258
       -0.018820201762825
        0.000620838821371
        0.013246862665002
        0.007380075977070
        0.002130792798727
        0.000000000000000
       -0.000613302489742
       -0.004421836331394
       -0.020950276928791
       -0.068892816017144
       -0.095886449492084
       -0.030383327355149
       -0.002465008950976
        0.000564982531663
        0.000167297097478
        0.000000000000000
       -0.004056379668950
       -0.018014518326552
       -0.055170411925224
       -0.099896982193664
       -0.064270495168964
       -0.013800465948962
       -0.001601655691772
       -0.000073441289169
        0.000000000000000
       -0.001946665405416
       -0.008473692460159
       -0.022067834958227
       -0.034699895129671
       -0.024640107278828
       -0.008083038823733
       -0.001547786694768
        0.000000000000000
        0.000000000000000
        0.000000000000000
       -0.002245237870724
       -0.005591409709900
       -0.007828621085314
       -0.005934403291295
       -0.002490241996409
       -0.000583660128172
        0.000000000000000
        0.000000000000000
        0.000000000000000
        0.000000000000000
        0.000000000000000
       -0.001153758774008
       -0.000937993187308
        0.000000000000000
        0.000000000000000
        0.000000000000000
        0.000000000000000
        0.000000000000000
        0.000000000000000
        0.000000000000000
        0.000000000000000
        0.000000000000000
        0.000000000000000
        0.000000000000000
        0.000000000000000
        0.000000000000000
        0.000000000000000
       -0.000061881360258
        0.000205765886307
        0.000766790950434
        0.000796009882255
        0.000000000000000
        0.000000000000000
        0.000000000000000
        0.000000000000000
       -0.000463662215059
       -0.001351804689465
       -0.001809940438796
       -0.000147316210779
        0.001179418053545
        0.000863943102065
        0.000000000000000
        0.000000000000000
        0.000000000000000
       -0.001531359087405
       -0.005451020709763
       -0.011738411565220
       -0.011149701896073
       -0.004049901593928
       -0.000367632665741
        0.000144710366943
        0.000000000000000
        0.000000000000000
       -0.002457654658632
       -0.009879377871558
       -0.025862601587418
       -0.035711250859546
       -0.019026321412185
       -0.005053637713463
       -0.000768761245406
        0.000000000000000
        0.000000000000000
       -0.001888968182337
       -0.008220634095444
       -0.021404814886748
       -0.033739221103530
       -0.024045804693000
       -0.007883410131750
       -0.001504217518757
        0.000000000000000
        0.000000000000000
        0.000000000000000
       -0.003598142294235
       -0.009767684814730
       -0.014785699374242
       -0.011524490402717
       -0.004616377542524
       -0.000993747127196
        0.000000000000000
        0.000000000000000
        0.000000000000000
        0.000000000000000
       -0.002540267697649
       -0.003993206854472
       -0.003241342492469
       -0.001395527981997
        0.000000000000000
        0.000000000000000
        0.000000000000000
        0.000000000000000
        0.000000000000000
        0.000000000000000
        0.000000000000000
        0.000000000000000
        0.000000000000000
        0.000000000000000
        0.000000000000000
        0.000000000000000
        0.000000000000000
        0.000000000000000
        0.000000000000000
        0.000000000000000
        0.000000000000000
        0.000000000000000
        0.000000000000000
        0.000000000000000
        0.000000000000000
        0.000000000000000
        0.000000000000000
       -0.000104287530332
       -0.000031326843501
        0.000000000000000
        0.000000000000000
        0.000000000000000
        0.000000000000000
        0.000000000000000
        0.000000000000000
       -0.000576302297383
       -0.001000908681868
       -0.000859498143082
       -0.000344509287910
        0.000000000000000
        0.000000000000000
        0.000000000000000
        0.000000000000000
       -0.000539808659027
       -0.001795578353939
       -0.003545701390053
       -0.003879018329504
       -0.002197849775544
       -0.000697236337915
        0.000000000000000
        0.000000000000000
        0.000000000000000
       -0.000735314456418
       -0.002813754739627
       -0.006140882105326
       -0.007760665329302
       -0.005230573783457
       -0.001969309889611
       -0.000436153721438
        0.000000000000000
        0.000000000000000
        0.000000000000000
       -0.002138701744771
       -0.005340317624095
       -0.007492437559279
       -0.005696852709705
       -0.002395001034797
       -0.000559781908857
        0.000000000000000
        0.000000000000000
        0.000000000000000
        0.000000000000000
       -0.002491428794776
       -0.003923566486156
       -0.003189670706868
       -0.001373499633117
        0.000000000000000
        0.000000000000000
        0.000000000000000
        0.000000000000000
        0.000000000000000
        0.000000000000000
       -0.001140141334354
       -0.000995303037552
        0.000000000000000
        0.000000000000000
        0.000000000000000
        0.000000000000000
        0.000000000000000
        0.000000000000000
        0.000000000000000
        0.000000000000000
        0.000000000000000
        0.000000000000000
        0.000000000000000
        0.000000000000000
        0.000000000000000
        0.000000000000000
        0.000000000000000
        0.000000000000000
        0.000000000000000
        0.000000000000000
        0.000000000000000
        0.000000000000000
        0.000000000000000
        0.000000000000000
        0.000000000000000
        0.000000000000000
        0.000000000000000
        0.000000000000000
        0.000000000000000
        0.000000000000000
        0.000000000000000
        0.000000000000000
        0.000000000000000
        0.000000000000000
        0.000000000000000
        0.000000000000000
        0.000000000000000
        0.000000000000000
        0.000000000000000
        0.000000000000000
        0.000000000000000
        0.000000000000000
        0.000000000000000
        0.000000000000000
       -0.000635425497884
       -0.000704242888571
        0.000000000000000
        0.000000000000000
        0.000000000000000
        0.000000000000000
        0.000000000000000
        0.000000000000000
        0.000000000000000
       -0.000922479983600
       -0.001337277201761
       -0.000875057681084
        0.000000000000000
        0.000000000000000
        0.000000000000000
        0.000000000000000
        0.000000000000000
        0.000000000000000
        0.000000000000000
       -0.001093294776113
       -0.000890592594151
        0.000000000000000
        0.000000000000000
        0.000000000000000
        0.000000000000000
        0.000000000000000
        0.000000000000000
        0.000000000000000
        0.000000000000000
        0.000000000000000
        0.000000000000000
        0.000000000000000
        0.000000000000000
        0.000000000000000
        0.000000000000000
        0.000000000000000
        0.000000000000000
        0.000000000000000
        0.000000000000000
        0.000000000000000
        0.000000000000000
        0.000000000000000
        0.000000000000000
        0.000000000000000
        0.000000000000000
        0.000000000000000
        0.000000000000000
        0.000000000000000
        0.000000000000000
        0.000000000000000
        0.000000000000000
END_DATAGRID_3D
END_BLOCK_DATAGRID_3D
