ATOMS
         C    7.558905    7.558905    7.558905
         H    8.755769    8.755769    8.755769
         H    6.362040    6.362040    8.755769
         H    8.755769    6.362040    6.362040
         H    6.362040    8.755769    6.362040
BEGIN_BLOCK_DATAGRID_3D
units: coords = b, function = sqrt(b^-3)
BEGIN_DATAGRID_3D_function
      9      9      9
0.0 0.0 0.0
   15.117809    0.000000    0.000000
    0.000000   15.117809    0.000000
    0.000000    0.000000   15.117809
        0.000000000000000
        0.000000000000000
        0.000000000000000
        0.000000000000000
        0.000000000000000
        0.000000000000000
        0.000000000000000
        0.000000000000000
        0.000000000000000
        0.000000000000000
        0.000000000000000
        0.000000000000000
        0.000000000000000
        0.000000000000000
        0.000000000000000
        0.000000000000000
        0.000000000000000
        0.000000000000000
        0.000000000000000
        0.000000000000000
        0.000000000000000
        0.000000000000000
        0.000000000000000
        0.000000000000000
        0.000000000000000
        0.000000000000000
        0.000000000000000
        0.000000000000000
        0.000000000000000
        0.000000000000000
        0.000000000000000
       -0.000026146920611
        0.000168397202389
        0.000000000000000
        0.000000000000000
        0.000000000000000
        0.000000000000000
        0.000000000000000
        0.000000000000000
       -0.000244997256689
        0.000008649872727
        0.000256624219297
        0.000000000000000
        0.000000000000000
        0.000000000000000
        0.000000000000000
        0.000000000000000
        0.000000000000000
       -0.000158526502240
        0.000037773883219
        0.000000000000000
        0.000000000000000
        0.000000000000000
        0.000000000000000
        0.000000000000000
        0.000000000000000
        0.000000000000000
        0.000000000000000
        0.000000000000000
        0.000000000000000
        0.000000000000000
        0.000000000000000
        0.000000000000000
        0.000000000000000
        0.000000000000000
        0.000000000000000
        0.000000000000000
        0.000000000000000
        0.000000000000000
        0.000000000000000
        0.000000000000000
        0.000000000000000
        0.000000000000000
        0.000000000000000
        0.000000000000000
        0.000000000000000
        0.000000000000000
        0.000000000000000
        0.000000000000000
        0.000000000000000
        0.000000000000000
        0.000000000000000
        0.000000000000000
        0.000000000000000
        0.000000000000000
        0.000000000000000
        0.000000000000000
        0.000000000000000
        0.000000000000000
        0.000000000000000
        0.000000000000000
        0.000000000000000
        0.000000000000000
        0.000000000000000
       -0.000192956871924
        0.000013195459954
        0.000000000000000
        0.000000000000000
        0.000000000000000
        0.000000000000000
        0.000000000000000
        0.000000000000000
       -0.000927241814126
       -0.000539648756603
        0.000391789177076
        0.000516996194149
        0.000000000000000
        0.000000000000000
        0.000000000000000
        0.000000000000000
       -0.001379160715888
       -0.002011477954865
       -0.000562762521514
        0.001407934475197
        0.001421447535528
        0.000577502852326
        0.000000000000000
        0.000000000000000
       -0.000711626812543
       -0.001961555314797
       -0.002294394548071
        0.000050198094521
        0.002367948218191
        0.001992493477979
        0.000719204187398
        0.000000000000000
        0.000000000000000
       -0.000570390401406
       -0.001394341728059
       -0.001348151120983
        0.000636316191634
        0.002060236872249
        0.001397504334881
        0.000000000000000
        0.000000000000000
        0.000000000000000
        0.000000000000000
       -0.000504384344849
       -0.000364683369606
        0.000570586919785
        0.000945585433119
        0.000000000000000
        0.000000000000000
        0.000000000000000
        0.000000000000000
        0.000000000000000
        0.000000000000000
       -0.000006083009034
        0.000200534246778
        0.000000000000000
        0.000000000000000
        0.000000000000000
        0.000000000000000
        0.000000000000000
        0.000000000000000
        0.000000000000000
        0.000000000000000
        0.000000000000000
        0.000000000000000
        0.000000000000000
        0.000000000000000
        0.000000000000000
        0.000000000000000
        0.000000000000000
        0.000000000000000
        0.000000000000000
        0.000000000000000
        0.000000000000000
        0.000000000000000
        0.000000000000000
        0.000000000000000
        0.000000000000000
        0.000000000000000
        0.000000000000000
       -0.001316602999226
       -0.001094846657112
       -0.000020156761392
        0.000341378325587
        0.000000000000000
        0.000000000000000
        0.000000000000000
        0.000000000000000
       -0.002881932908616
       -0.005071025264454
       -0.003113626163783
        0.001574948143006
        0.002110610445388
        0.000861968238543
        0.000000000000000
        0.000000000000000
       -0.002151057180367
       -0.007053128599088
       -0.011161109678017
       -0.004340801865107
        0.007999934382996
        0.006292718137962
        0.002230646700376
        0.000000000000000
        0.000000000000000
       -0.003062217920340
       -0.009399674895104
       -0.014432438560597
        0.000230990085262
        0.014722792325907
        0.009496265702208
        0.003083087256105
        0.000000000000000
        0.000000000000000
       -0.002211011765105
       -0.006206467411850
       -0.007768472337686
        0.004631155630418
        0.011325757708782
        0.007108679844807
        0.002162339514416
        0.000000000000000
        0.000000000000000
       -0.000852541318451
       -0.002072006619158
       -0.001488697416894
        0.003210216970887
        0.005126576510173
        0.002899618452788
        0.000000000000000
        0.000000000000000
        0.000000000000000
        0.000000000000000
       -0.000331951405495
        0.000039791696663
        0.001115715992877
        0.001327885333275
        0.000000000000000
        0.000000000000000
        0.000000000000000
        0.000000000000000
        0.000000000000000
        0.000000000000000
        0.000000000000000
        0.000000000000000
        0.000000000000000
        0.000000000000000
        0.000000000000000
        0.000000000000000
        0.000000000000000
        0.000000000000000
        0.000000000000000
        0.000000000000000
       -0.000508187517163
       -0.000209497263707
        0.000000000000000
        0.000000000000000
        0.000000000000000
        0.000000000000000
        0.000000000000000
       -0.002228504780068
       -0.004013273784537
       -0.003242937718052
       -0.000485903644150
        0.000662152557522
        0.000387137155650
        0.000000000000000
        0.000000000000000
       -0.002611040059447
       -0.009070600306834
       -0.016446942601916
       -0.011999638474950
        0.003261941809227
        0.004701206873027
        0.001883297660838
        0.000000000000000
        0.000000000000000
       -0.005979976055510
       -0.021640109388121
       -0.044188754281332
       -0.024852072658874
        0.029384507047853
        0.017306931432196
        0.005128063942265
        0.000910707922827
       -0.001200627777792
       -0.007607758688008
       -0.029615844424865
       -0.064575050322068
        0.000620219639765
        0.065217195423965
        0.029767300863708
        0.007632705867584
        0.001203512661998
       -0.000907690552198
       -0.005102626411698
       -0.017161395557510
       -0.028847053816537
        0.025494217760772
        0.044459927202611
        0.021708895854176
        0.005992431275213
        0.000000000000000
        0.000000000000000
       -0.001869962096529
       -0.004643819102348
       -0.003116405934541
        0.012151094913793
        0.016515729067971
        0.009089563563972
        0.002613980344256
        0.000000000000000
        0.000000000000000
       -0.000383477094129
       -0.000648816993213
        0.000511341174717
        0.003267884897627
        0.004025729004240
        0.002231445064876
        0.000000000000000
        0.000000000000000
        0.000000000000000
        0.000000000000000
        0.000000000000000
        0.000212514634336
        0.000511072401370
        0.000000000000000
        0.000000000000000
        0.000000000000000
        0.000000000000000
        0.000000000000000
        0.000000000000000
        0.000000000000000
       -0.000949793323933
       -0.000945262828060
       -0.000320807516511
        0.000000000000000
        0.000000000000000
        0.000000000000000
        0.000000000000000
       -0.001239551826630
       -0.003964032074127
       -0.006737100769486
       -0.005485675256518
       -0.001300884577487
        0.000583092660612
        0.000411492153344
        0.000000000000000
        0.000000000000000
       -0.004509496779162
       -0.015797890995829
       -0.032362985611694
       -0.025242723002094
        0.000632967147824
        0.005242394704725
        0.002228884339247
        0.000000000000000
       -0.001423383248484
       -0.009370289712886
       -0.039887554866121
       -0.105006839211492
       -0.067777941850949
        0.034832870852916
        0.023336312295467
        0.006644048268444
        0.001108121522743
       -0.001882452449070
       -0.010924499001641
       -0.050269855458069
       -0.134977012575466
       -0.000000000000001
        0.134977012575466
        0.050269855458070
        0.010924499001641
        0.001882452449070
       -0.001106966610710
       -0.006637030952673
       -0.023301485465555
       -0.034741762633567
        0.067777941850951
        0.104915730992145
        0.039852728036209
        0.009363272397115
        0.001422228336451
        0.000000000000000
       -0.002223506455704
       -0.005222950250101
       -0.000598140317912
        0.025242723002095
        0.032328158781783
        0.015778446541206
        0.004504118895618
        0.000000000000000
        0.000000000000000
       -0.000409495309976
       -0.000577714777069
        0.001307901893258
        0.005485675256518
        0.006730083453715
        0.003958654190584
        0.001237554983262
        0.000000000000000
        0.000000000000000
        0.000000000000000
        0.000000000000000
        0.000321962428544
        0.000945262828061
        0.000948638411900
        0.000000000000000
        0.000000000000000
        0.000000000000000
        0.000000000000000
        0.000000000000000
        0.000000000000000
       -0.000869178253568
       -0.000762413323281
        0.000000000000000
        0.000000000000000
        0.000000000000000
        0.000000000000000
        0.000000000000000
       -0.001164389686792
       -0.003624290040306
       -0.006047254040235
       -0.004795047628921
       -0.001315127406475
        0.000223904052026
        0.000000000000000
        0.000000000000000
        0.000000000000000
       -0.004029014138885
       -0.014126733451380
       -0.028556240863773
       -0.019730379988921
       -0.001545884357456
        0.002999929756163
        0.001378100416661
        0.000000000000000
       -0.001240447837430
       -0.007907891211602
       -0.033211171509828
       -0.088117690462497
       -0.045321895699702
        0.014554828956156
        0.014123086711836
        0.004618862826162
        0.000000000000000
       -0.001329722081402
       -0.008399561977551
       -0.033573195906811
       -0.075173551522991
       -0.000620219639764
        0.074531406421096
        0.033421739467969
        0.008374614797976
        0.001326837197196
        0.000000000000000
       -0.004631318045865
       -0.014191873177890
       -0.014826001877434
        0.044679750597807
        0.087580237231183
        0.033065635635142
        0.007882453681035
        0.001237430466800
        0.000000000000000
       -0.001381040701469
       -0.003018893013300
        0.001477097891402
        0.019578923550079
        0.028410704989087
        0.014069345680701
        0.004015678574576
        0.000000000000000
        0.000000000000000
        0.000000000000000
       -0.000226844336834
        0.001302672186772
        0.004770100449346
        0.006021816509668
        0.003610954475997
        0.001160729625271
        0.000000000000000
        0.000000000000000
        0.000000000000000
        0.000000000000000
        0.000000000000000
        0.000759528439074
        0.000866160882938
        0.000000000000000
        0.000000000000000
        0.000000000000000
        0.000000000000000
        0.000000000000000
        0.000000000000000
        0.000000000000000
        0.000000000000000
        0.000000000000000
        0.000000000000000
        0.000000000000000
        0.000000000000000
        0.000000000000000
        0.000000000000000
       -0.001719608123085
       -0.002941980721392
       -0.002286092756403
       -0.000687997728816
        0.000000000000000
        0.000000000000000
        0.000000000000000
        0.000000000000000
       -0.001892147228125
       -0.006329257714301
       -0.011000474721359
       -0.007441870127322
       -0.000999645286218
        0.000949246957291
        0.000000000000000
        0.000000000000000
        0.000000000000000
       -0.003687964470308
       -0.012564085141878
       -0.023904174460628
       -0.012210440705546
        0.003644087001732
        0.004980813475328
        0.001829741246501
        0.000000000000000
        0.000000000000000
       -0.003670785314525
       -0.011621166350826
       -0.018528687369009
       -0.000230990085262
        0.018238333603700
        0.011524575543723
        0.003649915978760
        0.000000000000000
        0.000000000000000
       -0.001841023580550
       -0.005036364721047
       -0.003808735032497
        0.011920086940236
        0.023672712415318
        0.012477834415766
        0.003668329535037
        0.000000000000000
        0.000000000000000
        0.000000000000000
       -0.000966932501463
        0.000944094040499
        0.007345279320218
        0.010914223995247
        0.006290653888072
        0.001882720308033
        0.000000000000000
        0.000000000000000
        0.000000000000000
        0.000000000000000
        0.000676715394767
        0.002265223420638
        0.002922345786121
        0.001710181202993
        0.000000000000000
        0.000000000000000
        0.000000000000000
        0.000000000000000
        0.000000000000000
        0.000000000000000
        0.000000000000000
        0.000000000000000
        0.000000000000000
        0.000000000000000
        0.000000000000000
        0.000000000000000
        0.000000000000000
        0.000000000000000
        0.000000000000000
        0.000000000000000
        0.000000000000000
        0.000000000000000
        0.000000000000000
        0.000000000000000
        0.000000000000000
        0.000000000000000
        0.000000000000000
       -0.000790447991096
       -0.000635102801362
        0.000000000000000
        0.000000000000000
        0.000000000000000
        0.000000000000000
        0.000000000000000
        0.000000000000000
       -0.001547175183731
       -0.002537505655123
       -0.001740963683311
       -0.000305697828660
        0.000000000000000
        0.000000000000000
        0.000000000000000
        0.000000000000000
       -0.000977476379515
       -0.002878765305460
       -0.004187761744534
       -0.002163478922928
        0.000650364725516
        0.001057844782022
        0.000000000000000
        0.000000000000000
        0.000000000000000
       -0.000937420324063
       -0.002580191536399
       -0.003134804328158
       -0.000050198094521
        0.003061250658038
        0.002549253373217
        0.000929842949208
        0.000000000000000
        0.000000000000000
        0.000000000000000
       -0.001076188401014
       -0.000699123642901
        0.002089925252808
        0.004127978390321
        0.002851659497991
        0.000970363928595
        0.000000000000000
        0.000000000000000
        0.000000000000000
        0.000000000000000
        0.000287354209668
        0.001710025520129
        0.002510399847653
        0.001534563334431
        0.000000000000000
        0.000000000000000
        0.000000000000000
        0.000000000000000
        0.000000000000000
        0.000000000000000
        0.000627525426507
        0.000783335540176
        0.000000000000000
        0.000000000000000
        0.000000000000000
        0.000000000000000
        0.000000000000000
        0.000000000000000
        0.000000000000000
        0.000000000000000
        0.000000000000000
        0.000000000000000
        0.000000000000000
        0.000000000000000
        0.000000000000000
        0.000000000000000
        0.000000000000000
        0.000000000000000
        0.000000000000000
        0.000000000000000
        0.000000000000000
        0.000000000000000
        0.000000000000000
        0.000000000000000
        0.000000000000000
        0.000000000000000
        0.000000000000000
        0.000000000000000
        0.000000000000000
        0.000000000000000
        0.000000000000000
        0.000000000000000
        0.000000000000000
        0.000000000000000
        0.000000000000000
        0.000000000000000
        0.000000000000000
        0.000000000000000
        0.000000000000000
        0.000000000000000
        0.000000000000000
        0.000000000000000
        0.000000000000000
        0.000000000000000
       -0.000498137116992
       -0.000289114805130
        0.000000000000000
        0.000000000000000
        0.000000000000000
        0.000000000000000
        0.000000000000000
        0.000000000000000
        0.000000000000000
       -0.000382833638701
       -0.000008649872727
        0.000371206676093
        0.000000000000000
        0.000000000000000
        0.000000000000000
        0.000000000000000
        0.000000000000000
        0.000000000000000
        0.000000000000000
        0.000277487842522
        0.000488266416842
        0.000000000000000
        0.000000000000000
        0.000000000000000
        0.000000000000000
        0.000000000000000
        0.000000000000000
        0.000000000000000
        0.000000000000000
        0.000000000000000
        0.000000000000000
        0.000000000000000
        0.000000000000000
        0.000000000000000
        0.000000000000000
        0.000000000000000
        0.000000000000000
        0.000000000000000
        0.000000000000000
        0.000000000000000
        0.000000000000000
        0.000000000000000
        0.000000000000000
        0.000000000000000
        0.000000000000000
        0.000000000000000
        0.000000000000000
        0.000000000000000
        0.000000000000000
        0.000000000000000
        0.000000000000000
END_DATAGRID_3D
END_BLOCK_DATAGRID_3D
