ATOMS
         C    7.558905    7.558905    7.558905
         H    8.755769    8.755769    8.755769
         H    6.362040    6.362040    8.755769
         H    8.755769    6.362040    6.362040
         H    6.362040    8.755769    6.362040
BEGIN_BLOCK_DATAGRID_3D
units: coords = b, function = sqrt(b^-3)
BEGIN_DATAGRID_3D_function
      9      9      9
0.0 0.0 0.0
   15.117809    0.000000    0.000000
    0.000000   15.117809    0.000000
    0.000000    0.000000   15.117809
        0.000000000000000
        0.000000000000000
        0.000000000000000
        0.000000000000000
        0.000000000000000
        0.000000000000000
        0.000000000000000
        0.000000000000000
        0.000000000000000
        0.000000000000000
        0.000000000000000
        0.000000000000000
        0.000000000000000
        0.000000000000000
        0.000000000000000
        0.000000000000000
        0.000000000000000
        0.000000000000000
        0.000000000000000
        0.000000000000000
        0.000000000000000
        0.000000000000000
        0.000000000000000
        0.000000000000000
        0.000000000000000
        0.000000000000000
        0.000000000000000
        0.000000000000000
        0.000000000000000
        0.000000000000000
        0.000000000000000
        0.000854590379484
        0.000614986479695
        0.000000000000000
        0.000000000000000
        0.000000000000000
        0.000000000000000
        0.000000000000000
        0.000000000000000
        0.001274491727179
        0.001627525337060
        0.000913190893702
        0.000000000000000
        0.000000000000000
        0.000000000000000
        0.000000000000000
        0.000000000000000
        0.000000000000000
        0.001242244845515
        0.001333092241397
        0.000000000000000
        0.000000000000000
        0.000000000000000
        0.000000000000000
        0.000000000000000
        0.000000000000000
        0.000000000000000
        0.000000000000000
        0.000000000000000
        0.000000000000000
        0.000000000000000
        0.000000000000000
        0.000000000000000
        0.000000000000000
        0.000000000000000
        0.000000000000000
        0.000000000000000
        0.000000000000000
        0.000000000000000
        0.000000000000000
        0.000000000000000
        0.000000000000000
        0.000000000000000
        0.000000000000000
        0.000000000000000
        0.000000000000000
        0.000000000000000
        0.000000000000000
        0.000000000000000
        0.000000000000000
        0.000000000000000
        0.000000000000000
        0.000000000000000
        0.000000000000000
        0.000000000000000
        0.000000000000000
        0.000000000000000
        0.000000000000000
        0.000000000000000
        0.000000000000000
        0.000000000000000
        0.000000000000000
        0.000000000000000
        0.000000000000000
        0.000120769708465
        0.000050798512602
        0.000000000000000
        0.000000000000000
        0.000000000000000
        0.000000000000000
        0.000000000000000
        0.000000000000000
        0.001051303298617
        0.001284140112266
        0.000729871586051
        0.000206651903563
        0.000000000000000
        0.000000000000000
        0.000000000000000
        0.000000000000000
        0.001918386069883
        0.004165237045855
        0.004954892186980
        0.002980290049310
        0.000943254427361
        0.000167743627230
        0.000000000000000
        0.000000000000000
        0.001115925626333
        0.004012308095843
        0.008277320814211
        0.009445072000964
        0.005562242556706
        0.001808892521821
        0.000309802815391
        0.000000000000000
        0.000000000000000
        0.001170506592894
        0.004156865520207
        0.008268305946115
        0.008884671183937
        0.005009045161122
        0.001533075659836
        0.000000000000000
        0.000000000000000
        0.000000000000000
        0.000000000000000
        0.002166343044648
        0.004370248361517
        0.004537060505399
        0.002400158431102
        0.000000000000000
        0.000000000000000
        0.000000000000000
        0.000000000000000
        0.000000000000000
        0.000000000000000
        0.001287451707522
        0.001304958733259
        0.000000000000000
        0.000000000000000
        0.000000000000000
        0.000000000000000
        0.000000000000000
        0.000000000000000
        0.000000000000000
        0.000000000000000
        0.000000000000000
        0.000000000000000
        0.000000000000000
        0.000000000000000
        0.000000000000000
        0.000000000000000
        0.000000000000000
        0.000000000000000
        0.000000000000000
        0.000000000000000
        0.000000000000000
        0.000000000000000
        0.000000000000000
        0.000000000000000
        0.000000000000000
        0.000000000000000
        0.000000000000000
       -0.000099583337017
       -0.000356932157598
       -0.000487771808643
       -0.000312445185827
        0.000000000000000
        0.000000000000000
        0.000000000000000
        0.000000000000000
        0.001064746140260
        0.002062609640412
        0.001750030784414
        0.000160467793493
       -0.000380758270239
       -0.000204559930614
        0.000000000000000
        0.000000000000000
        0.001501458002607
        0.005865609792939
        0.013159705977935
        0.015659307823034
        0.006648308453025
        0.001138162149984
       -0.000021323074496
        0.000000000000000
        0.000000000000000
        0.003417802026740
        0.013810877394324
        0.035021817951340
        0.043462167391678
        0.019609981229096
        0.004363261214580
        0.000508888434146
        0.000000000000000
        0.000000000000000
        0.003715753692628
        0.015090428318211
        0.036902661047081
        0.038972491357402
        0.017819806695592
        0.004586689653167
        0.000621380691704
        0.000000000000000
        0.000000000000000
        0.001978291381255
        0.007644299281752
        0.016068122674702
        0.016424107824489
        0.008389689805695
        0.002262894872363
        0.000000000000000
        0.000000000000000
        0.000000000000000
        0.000000000000000
        0.002086176636468
        0.004182202426775
        0.004283622618484
        0.002222422031328
        0.000000000000000
        0.000000000000000
        0.000000000000000
        0.000000000000000
        0.000000000000000
        0.000000000000000
        0.000000000000000
        0.000000000000000
        0.000000000000000
        0.000000000000000
        0.000000000000000
        0.000000000000000
        0.000000000000000
        0.000000000000000
        0.000000000000000
        0.000000000000000
       -0.000570241117943
       -0.000502006449631
        0.000000000000000
        0.000000000000000
        0.000000000000000
        0.000000000000000
        0.000000000000000
       -0.000592133134209
       -0.001751737105150
       -0.002967258075804
       -0.002617579140076
       -0.001301094717170
       -0.000394945579018
        0.000000000000000
        0.000000000000000
        0.000141825434150
       -0.000097699635613
       -0.002464333353969
       -0.006978934087295
       -0.007356406299146
       -0.003566079349608
       -0.001048028824334
        0.000000000000000
        0.000000000000000
        0.002021713504512
        0.007499634586020
        0.016325781014293
        0.012971278401443
       -0.005301022791681
       -0.004445771167287
       -0.001454159890594
       -0.000269858996458
        0.000758322519872
        0.005407388454704
        0.026820733540457
        0.089186522820007
        0.116698038240367
        0.031636922379851
        0.001676702139771
       -0.000713427268399
       -0.000215514285783
        0.000837595344196
        0.006240383551563
        0.031829217257240
        0.106426065791264
        0.107852166798415
        0.034697027533280
        0.005442950800533
        0.000321810647303
        0.000000000000000
        0.000000000000000
        0.003557195084028
        0.014363931961477
        0.034739852389099
        0.035476369767523
        0.015406918740522
        0.003665749991736
        0.000411406754871
        0.000000000000000
        0.000000000000000
        0.001083608065608
        0.003810260976864
        0.007403802801045
        0.007661219262109
        0.004095261256965
        0.001145365323230
        0.000000000000000
        0.000000000000000
        0.000000000000000
        0.000000000000000
        0.000000000000000
        0.001069742797369
        0.001113049352032
        0.000000000000000
        0.000000000000000
        0.000000000000000
        0.000000000000000
        0.000000000000000
        0.000000000000000
        0.000000000000000
       -0.000808767739047
       -0.001192081292752
       -0.000793600880013
        0.000000000000000
        0.000000000000000
        0.000000000000000
        0.000000000000000
       -0.000444532546133
       -0.001906678769509
       -0.004854576796411
       -0.006918045074117
       -0.005282214452647
       -0.002357060909169
       -0.000599742566041
        0.000000000000000
        0.000000000000000
       -0.000860112568748
       -0.005101180828285
       -0.017977884536849
       -0.031833874109560
       -0.022037188844461
       -0.008210471011616
       -0.002015992726981
        0.000000000000000
        0.000099894551072
        0.000197641106867
       -0.003540727037403
       -0.030323092592064
       -0.085475503895090
       -0.058174066542071
       -0.017332226023457
       -0.003635734014968
       -0.000497474562071
        0.000606075346899
        0.003517257248854
        0.016184908203311
        0.043457267545025
        0.000000000000002
       -0.043457267545030
       -0.016184908203313
       -0.003517257248854
       -0.000606075346899
        0.000714778175160
        0.004956083987273
        0.023885102566322
        0.075316623442573
        0.085475503895086
        0.013180535691554
       -0.003012149505466
       -0.001517991079173
       -0.000317198164161
        0.000000000000000
        0.003027873711005
        0.011869061555643
        0.028590065387327
        0.031833874109558
        0.011425007993980
        0.001442590284257
       -0.000151768415277
        0.000000000000000
        0.000000000000000
        0.000975460600047
        0.003368941893193
        0.006602564424952
        0.006918045074116
        0.003534226824105
        0.000894797785484
        0.000068814512127
        0.000000000000000
        0.000000000000000
        0.000000000000000
        0.000000000000000
        0.001010904493102
        0.001192081292752
        0.000591464125959
        0.000000000000000
        0.000000000000000
        0.000000000000000
        0.000000000000000
        0.000000000000000
        0.000000000000000
       -0.000858323044898
       -0.001032127501117
        0.000000000000000
        0.000000000000000
        0.000000000000000
        0.000000000000000
        0.000000000000000
       -0.000585256090416
       -0.002434489265363
       -0.005621457482295
       -0.007169533173254
       -0.004967967924526
       -0.001935890772369
        0.000000000000000
        0.000000000000000
        0.000000000000000
       -0.001657957698249
       -0.008320555324738
       -0.024542510934355
       -0.033036139294015
       -0.020226617549078
       -0.007558089403258
       -0.001696699104867
        0.000000000000000
       -0.000145979616891
       -0.002051510687460
       -0.015611239972025
       -0.068768037298247
       -0.101468437535578
       -0.053697448409112
       -0.016979434112233
       -0.003738228287341
        0.000000000000000
        0.000056350206360
       -0.000253663360564
       -0.006476358011537
       -0.044192991969498
       -0.116698038240370
       -0.076630453230367
       -0.022021077668693
       -0.004440297825741
       -0.000599158440449
        0.000000000000000
        0.001394704135526
        0.004036848725678
        0.002674639861534
       -0.019355007664288
       -0.032357005701343
       -0.011772206117930
       -0.002734712973509
       -0.000421756730847
        0.000000000000000
        0.001143466915846
        0.003990039047134
        0.007284032162524
        0.004538703613784
       -0.002840935155600
       -0.002477297287132
       -0.000851208561445
        0.000000000000000
        0.000000000000000
        0.000000000000000
        0.001382658583348
        0.002624443772711
        0.002475571986948
        0.000835233821326
       -0.000074676994331
       -0.000103406396175
        0.000000000000000
        0.000000000000000
        0.000000000000000
        0.000000000000000
        0.000000000000000
        0.000489319267029
        0.000290586697160
        0.000000000000000
        0.000000000000000
        0.000000000000000
        0.000000000000000
        0.000000000000000
        0.000000000000000
        0.000000000000000
        0.000000000000000
        0.000000000000000
        0.000000000000000
        0.000000000000000
        0.000000000000000
        0.000000000000000
        0.000000000000000
       -0.001425655488334
       -0.003247812173891
       -0.003906807521079
       -0.002428440569560
        0.000000000000000
        0.000000000000000
        0.000000000000000
        0.000000000000000
       -0.001094610062336
       -0.004939423948617
       -0.012047102467839
       -0.015061682624316
       -0.009718398679283
       -0.003502077535241
        0.000000000000000
        0.000000000000000
        0.000000000000000
       -0.001816516306849
       -0.009047051681473
       -0.026705319592337
       -0.036532260883893
       -0.022639505504148
       -0.008479029064689
       -0.001906673041699
        0.000000000000000
        0.000000000000000
       -0.001250040884483
       -0.007042996666966
       -0.024409637100862
       -0.043462167391679
       -0.030222162079576
       -0.011131141941939
       -0.002676649576403
        0.000000000000000
        0.000000000000000
       -0.000216165652612
       -0.001973270381418
       -0.008340007169381
       -0.018099538296544
       -0.016845649907771
       -0.007181538786723
       -0.001877914311283
        0.000000000000000
        0.000000000000000
        0.000000000000000
        0.000174436522618
       -0.000733900766825
       -0.003112455984589
       -0.004181488000357
       -0.002324117062896
       -0.000679121388304
        0.000000000000000
        0.000000000000000
        0.000000000000000
        0.000000000000000
        0.000305601875249
       -0.000019882939807
       -0.000446618444241
       -0.000348075962307
        0.000000000000000
        0.000000000000000
        0.000000000000000
        0.000000000000000
        0.000000000000000
        0.000000000000000
        0.000000000000000
        0.000000000000000
        0.000000000000000
        0.000000000000000
        0.000000000000000
        0.000000000000000
        0.000000000000000
        0.000000000000000
        0.000000000000000
        0.000000000000000
        0.000000000000000
        0.000000000000000
        0.000000000000000
        0.000000000000000
        0.000000000000000
        0.000000000000000
        0.000000000000000
       -0.001031000182036
       -0.001165044820639
        0.000000000000000
        0.000000000000000
        0.000000000000000
        0.000000000000000
        0.000000000000000
        0.000000000000000
       -0.001505821896514
       -0.003435858108634
       -0.004160245407994
       -0.002606176969334
        0.000000000000000
        0.000000000000000
        0.000000000000000
        0.000000000000000
       -0.000672154617702
       -0.002781093808706
       -0.006485960627364
       -0.008392985095081
       -0.005881751828683
       -0.002323601108975
        0.000000000000000
        0.000000000000000
        0.000000000000000
       -0.000584997572419
       -0.002550044972158
       -0.006529333185669
       -0.009445072000965
       -0.007310230185248
       -0.003271155645506
       -0.000840730869305
        0.000000000000000
        0.000000000000000
        0.000000000000000
       -0.001127860620744
       -0.003292530378294
       -0.005446578275836
       -0.004762635368061
       -0.002319026138862
       -0.000666095602422
        0.000000000000000
        0.000000000000000
        0.000000000000000
        0.000000000000000
       -0.000845284760385
       -0.001660955209670
       -0.001664261838935
       -0.000867173051697
        0.000000000000000
        0.000000000000000
        0.000000000000000
        0.000000000000000
        0.000000000000000
        0.000000000000000
       -0.000260683621085
       -0.000307250038089
        0.000000000000000
        0.000000000000000
        0.000000000000000
        0.000000000000000
        0.000000000000000
        0.000000000000000
        0.000000000000000
        0.000000000000000
        0.000000000000000
        0.000000000000000
        0.000000000000000
        0.000000000000000
        0.000000000000000
        0.000000000000000
        0.000000000000000
        0.000000000000000
        0.000000000000000
        0.000000000000000
        0.000000000000000
        0.000000000000000
        0.000000000000000
        0.000000000000000
        0.000000000000000
        0.000000000000000
        0.000000000000000
        0.000000000000000
        0.000000000000000
        0.000000000000000
        0.000000000000000
        0.000000000000000
        0.000000000000000
        0.000000000000000
        0.000000000000000
        0.000000000000000
        0.000000000000000
        0.000000000000000
        0.000000000000000
        0.000000000000000
        0.000000000000000
        0.000000000000000
        0.000000000000000
        0.000000000000000
       -0.001030825093044
       -0.001252170390482
        0.000000000000000
        0.000000000000000
        0.000000000000000
        0.000000000000000
        0.000000000000000
        0.000000000000000
        0.000000000000000
       -0.001072354973124
       -0.001627525337060
       -0.001115327647756
        0.000000000000000
        0.000000000000000
        0.000000000000000
        0.000000000000000
        0.000000000000000
        0.000000000000000
        0.000000000000000
       -0.000935512230398
       -0.000826406232166
        0.000000000000000
        0.000000000000000
        0.000000000000000
        0.000000000000000
        0.000000000000000
        0.000000000000000
        0.000000000000000
        0.000000000000000
        0.000000000000000
        0.000000000000000
        0.000000000000000
        0.000000000000000
        0.000000000000000
        0.000000000000000
        0.000000000000000
        0.000000000000000
        0.000000000000000
        0.000000000000000
        0.000000000000000
        0.000000000000000
        0.000000000000000
        0.000000000000000
        0.000000000000000
        0.000000000000000
        0.000000000000000
        0.000000000000000
        0.000000000000000
        0.000000000000000
        0.000000000000000
        0.000000000000000
END_DATAGRID_3D
END_BLOCK_DATAGRID_3D
