ATOMS
         C    7.558905    7.558905    7.558905
         H    8.755769    8.755769    8.755769
         H    6.362040    6.362040    8.755769
         H    8.755769    6.362040    6.362040
         H    6.362040    8.755769    6.362040
BEGIN_BLOCK_DATAGRID_3D
units: coords = b, function = 1/hbar/H*b^-2
BEGIN_DATAGRID_3D_function
      9      9      9
0.0 0.0 0.0
   15.117809    0.000000    0.000000
    0.000000   15.117809    0.000000
    0.000000    0.000000   15.117809
        0.000000000000000
        0.000000000000000
        0.000000000000000
        0.000000000000000
        0.000000000000000
        0.000000000000000
        0.000000000000000
        0.000000000000000
        0.000000000000000
        0.000000000000000
        0.000000000000000
        0.000000000000000
        0.000000000000000
        0.000000000000000
        0.000000000000000
        0.000000000000000
        0.000000000000000
        0.000000000000000
        0.000000000000000
        0.000000000000000
        0.000000000000000
        0.000000000000000
        0.000000000000000
        0.000000000000000
        0.000000000000000
        0.000000000000000
        0.000000000000000
        0.000000000000000
        0.000000000000000
        0.000000000000000
        0.000000000000000
       -0.000000000333230
        0.000000000010797
        0.000000000000000
        0.000000000000000
        0.000000000000000
        0.000000000000000
        0.000000000000000
        0.000000000000000
        0.000000000010085
       -0.000000000986541
        0.000000000010797
        0.000000000000000
        0.000000000000000
        0.000000000000000
        0.000000000000000
        0.000000000000000
        0.000000000000000
        0.000000000010085
       -0.000000000332804
        0.000000000000000
        0.000000000000000
        0.000000000000000
        0.000000000000000
        0.000000000000000
        0.000000000000000
        0.000000000000000
        0.000000000000000
        0.000000000000000
        0.000000000000000
        0.000000000000000
        0.000000000000000
        0.000000000000000
        0.000000000000000
        0.000000000000000
        0.000000000000000
        0.000000000000000
        0.000000000000000
        0.000000000000000
        0.000000000000000
        0.000000000000000
        0.000000000000000
        0.000000000000000
        0.000000000000000
        0.000000000000000
        0.000000000000000
        0.000000000000000
        0.000000000000000
        0.000000000000000
        0.000000000000000
        0.000000000000000
        0.000000000000000
        0.000000000000000
        0.000000000000000
        0.000000000000000
        0.000000000000000
        0.000000000000000
        0.000000000000000
        0.000000000000000
        0.000000000000000
        0.000000000000000
        0.000000000000000
        0.000000000000000
        0.000000000000000
       -0.000000000584339
        0.000000000540601
        0.000000000000000
        0.000000000000000
        0.000000000000000
        0.000000000000000
        0.000000000000000
        0.000000000000000
       -0.000000001111438
       -0.000000000793449
        0.000000000578505
        0.000000000652940
        0.000000000000000
        0.000000000000000
        0.000000000000000
        0.000000000000000
       -0.000000000720905
       -0.000000001728653
        0.000000000642085
       -0.000000000638563
        0.000000000924662
        0.000000000000904
        0.000000000000000
        0.000000000000000
        0.000000000001383
       -0.000000001267693
        0.000000000630118
       -0.000000000469373
        0.000000000639609
       -0.000000001261093
        0.000000000000904
        0.000000000000000
        0.000000000000000
        0.000000000001383
        0.000000000922303
       -0.000000000653733
        0.000000000620636
       -0.000000001725949
       -0.000000000720323
        0.000000000000000
        0.000000000000000
        0.000000000000000
        0.000000000000000
        0.000000000654902
        0.000000000575185
       -0.000000000797233
       -0.000000001109479
        0.000000000000000
        0.000000000000000
        0.000000000000000
        0.000000000000000
        0.000000000000000
        0.000000000000000
        0.000000000540272
       -0.000000000586872
        0.000000000000000
        0.000000000000000
        0.000000000000000
        0.000000000000000
        0.000000000000000
        0.000000000000000
        0.000000000000000
        0.000000000000000
        0.000000000000000
        0.000000000000000
        0.000000000000000
        0.000000000000000
        0.000000000000000
        0.000000000000000
        0.000000000000000
        0.000000000000000
        0.000000000000000
        0.000000000000000
        0.000000000000000
        0.000000000000000
        0.000000000000000
        0.000000000000000
        0.000000000000000
        0.000000000000000
        0.000000000000000
       -0.000000001596234
       -0.000000000026829
       -0.000000000090463
        0.000000001098661
        0.000000000000000
        0.000000000000000
        0.000000000000000
        0.000000000000000
       -0.000000002190848
        0.000000000463480
        0.000000005247153
       -0.000000006475259
       -0.000000002327302
        0.000000000387620
        0.000000000000000
        0.000000000000000
       -0.000000000340542
       -0.000000001066491
        0.000000018058544
       -0.000000010524784
       -0.000000034697310
       -0.000000003920739
        0.000000000320789
        0.000000000000000
        0.000000000000000
       -0.000000000801854
        0.000000005914175
       -0.000000012721385
       -0.000000033988229
       -0.000000012922461
        0.000000005983166
       -0.000000000801408
        0.000000000000000
        0.000000000000000
        0.000000000314315
       -0.000000003944285
       -0.000000034607889
       -0.000000010672002
        0.000000018108965
       -0.000000001037405
       -0.000000000343025
        0.000000000000000
        0.000000000000000
        0.000000000386141
       -0.000000002310797
       -0.000000006586741
        0.000000005211643
        0.000000000495630
       -0.000000002188530
        0.000000000000000
        0.000000000000000
        0.000000000000000
        0.000000000000000
        0.000000001098902
       -0.000000000097190
       -0.000000000029142
       -0.000000001596295
        0.000000000000000
        0.000000000000000
        0.000000000000000
        0.000000000000000
        0.000000000000000
        0.000000000000000
        0.000000000000000
        0.000000000000000
        0.000000000000000
        0.000000000000000
        0.000000000000000
        0.000000000000000
        0.000000000000000
        0.000000000000000
        0.000000000000000
        0.000000000000000
       -0.000000000854801
        0.000000000570052
        0.000000000000000
        0.000000000000000
        0.000000000000000
        0.000000000000000
        0.000000000000000
       -0.000000001073552
       -0.000000003348701
       -0.000000008233076
        0.000000005437832
        0.000000003866787
       -0.000000000209008
        0.000000000000000
        0.000000000000000
        0.000000000067744
       -0.000000004508725
        0.000000080107746
        0.000000140867709
       -0.000000109230307
       -0.000000083600703
        0.000000004785728
        0.000000000000000
        0.000000000000000
       -0.000000005247378
        0.000000072866300
        0.000000242069353
       -0.000000402080010
       -0.000000762904728
       -0.000000058319342
        0.000000003795312
       -0.000000000005374
       -0.000000000005848
       -0.000000008736808
        0.000000135986650
       -0.000000402013075
       -0.000000989050597
       -0.000000406137602
        0.000000136570020
       -0.000000008754605
       -0.000000000005374
       -0.000000000005848
        0.000000003752509
       -0.000000058160137
       -0.000000758939868
       -0.000000402789595
        0.000000242855768
        0.000000073206131
       -0.000000005274697
        0.000000000000000
        0.000000000000000
        0.000000004755663
       -0.000000083314952
       -0.000000110029040
        0.000000140988232
        0.000000080421193
       -0.000000004503213
        0.000000000065453
        0.000000000000000
        0.000000000000000
       -0.000000000209790
        0.000000003849201
        0.000000005441225
       -0.000000008250733
       -0.000000003354912
       -0.000000001074460
        0.000000000000000
        0.000000000000000
        0.000000000000000
        0.000000000000000
        0.000000000000000
        0.000000000571797
       -0.000000000850831
        0.000000000000000
        0.000000000000000
        0.000000000000000
        0.000000000000000
        0.000000000000000
        0.000000000000000
        0.000000000000000
       -0.000000000471850
       -0.000000000000925
        0.000000000468328
        0.000000000000000
        0.000000000000000
        0.000000000000000
        0.000000000000000
        0.000000000135177
       -0.000000001887823
       -0.000000015171630
        0.000000000003833
        0.000000015211173
        0.000000001896283
       -0.000000000131943
        0.000000000000000
        0.000000000000000
       -0.000000002743271
        0.000000039159489
        0.000000331339309
       -0.000000000323154
       -0.000000332238755
       -0.000000039327540
        0.000000002767669
        0.000000000000000
       -0.000000000066709
       -0.000000013695578
        0.000000278904821
        0.000001047614361
        0.000000004281292
       -0.000001053459875
       -0.000000280076241
        0.000000013792797
        0.000000000068132
        0.000000000000000
        0.000000000000000
       -0.000000000000000
        0.000000000000000
       -0.000000000000000
       -0.000000000000000
        0.000000000000000
        0.000000000000000
        0.000000000000000
        0.000000000066709
        0.000000013695578
       -0.000000278904821
       -0.000001047614361
       -0.000000004281292
        0.000001053459875
        0.000000280076241
       -0.000000013792797
       -0.000000000068132
        0.000000000000000
        0.000000002743271
       -0.000000039159489
       -0.000000331339309
        0.000000000323154
        0.000000332238755
        0.000000039327540
       -0.000000002767669
        0.000000000000000
        0.000000000000000
       -0.000000000135177
        0.000000001887823
        0.000000015171630
       -0.000000000003833
       -0.000000015211173
       -0.000000001896283
        0.000000000131943
        0.000000000000000
        0.000000000000000
        0.000000000000000
        0.000000000000000
        0.000000000471850
        0.000000000000925
       -0.000000000468328
        0.000000000000000
        0.000000000000000
        0.000000000000000
        0.000000000000000
        0.000000000000000
        0.000000000000000
       -0.000000000571797
        0.000000000850831
        0.000000000000000
        0.000000000000000
        0.000000000000000
        0.000000000000000
        0.000000000000000
        0.000000000209790
       -0.000000003849201
       -0.000000005441225
        0.000000008250733
        0.000000003354912
        0.000000001074460
        0.000000000000000
        0.000000000000000
        0.000000000000000
       -0.000000004755663
        0.000000083314952
        0.000000110029040
       -0.000000140988232
       -0.000000080421193
        0.000000004503213
       -0.000000000065453
        0.000000000000000
        0.000000000005848
       -0.000000003752509
        0.000000058160137
        0.000000758939868
        0.000000402789595
       -0.000000242855768
       -0.000000073206131
        0.000000005274697
        0.000000000000000
        0.000000000005848
        0.000000008736808
       -0.000000135986650
        0.000000402013075
        0.000000989050597
        0.000000406137602
       -0.000000136570020
        0.000000008754605
        0.000000000005374
        0.000000000000000
        0.000000005247378
       -0.000000072866300
       -0.000000242069353
        0.000000402080010
        0.000000762904728
        0.000000058319342
       -0.000000003795312
        0.000000000005374
        0.000000000000000
       -0.000000000067744
        0.000000004508725
       -0.000000080107746
       -0.000000140867709
        0.000000109230307
        0.000000083600703
       -0.000000004785728
        0.000000000000000
        0.000000000000000
        0.000000000000000
        0.000000001073552
        0.000000003348701
        0.000000008233076
       -0.000000005437832
       -0.000000003866787
        0.000000000209008
        0.000000000000000
        0.000000000000000
        0.000000000000000
        0.000000000000000
        0.000000000000000
        0.000000000854801
       -0.000000000570052
        0.000000000000000
        0.000000000000000
        0.000000000000000
        0.000000000000000
        0.000000000000000
        0.000000000000000
        0.000000000000000
        0.000000000000000
        0.000000000000000
        0.000000000000000
        0.000000000000000
        0.000000000000000
        0.000000000000000
        0.000000000000000
       -0.000000001098902
        0.000000000097190
        0.000000000029142
        0.000000001596295
        0.000000000000000
        0.000000000000000
        0.000000000000000
        0.000000000000000
       -0.000000000386141
        0.000000002310797
        0.000000006586741
       -0.000000005211643
       -0.000000000495630
        0.000000002188530
        0.000000000000000
        0.000000000000000
        0.000000000000000
       -0.000000000314315
        0.000000003944285
        0.000000034607889
        0.000000010672002
       -0.000000018108965
        0.000000001037405
        0.000000000343025
        0.000000000000000
        0.000000000000000
        0.000000000801854
       -0.000000005914175
        0.000000012721385
        0.000000033988229
        0.000000012922461
       -0.000000005983166
        0.000000000801408
        0.000000000000000
        0.000000000000000
        0.000000000340542
        0.000000001066491
       -0.000000018058544
        0.000000010524784
        0.000000034697310
        0.000000003920739
       -0.000000000320789
        0.000000000000000
        0.000000000000000
        0.000000000000000
        0.000000002190848
       -0.000000000463480
       -0.000000005247153
        0.000000006475259
        0.000000002327302
       -0.000000000387620
        0.000000000000000
        0.000000000000000
        0.000000000000000
        0.000000000000000
        0.000000001596234
        0.000000000026829
        0.000000000090463
       -0.000000001098661
        0.000000000000000
        0.000000000000000
        0.000000000000000
        0.000000000000000
        0.000000000000000
        0.000000000000000
        0.000000000000000
        0.000000000000000
        0.000000000000000
        0.000000000000000
        0.000000000000000
        0.000000000000000
        0.000000000000000
        0.000000000000000
        0.000000000000000
        0.000000000000000
        0.000000000000000
        0.000000000000000
        0.000000000000000
        0.000000000000000
        0.000000000000000
        0.000000000000000
        0.000000000000000
       -0.000000000540272
        0.000000000586872
        0.000000000000000
        0.000000000000000
        0.000000000000000
        0.000000000000000
        0.000000000000000
        0.000000000000000
       -0.000000000654902
       -0.000000000575185
        0.000000000797233
        0.000000001109479
        0.000000000000000
        0.000000000000000
        0.000000000000000
        0.000000000000000
       -0.000000000001383
       -0.000000000922303
        0.000000000653733
       -0.000000000620636
        0.000000001725949
        0.000000000720323
        0.000000000000000
        0.000000000000000
        0.000000000000000
       -0.000000000001383
        0.000000001267693
       -0.000000000630118
        0.000000000469373
       -0.000000000639609
        0.000000001261093
       -0.000000000000904
        0.000000000000000
        0.000000000000000
        0.000000000000000
        0.000000000720905
        0.000000001728653
       -0.000000000642085
        0.000000000638563
       -0.000000000924662
       -0.000000000000904
        0.000000000000000
        0.000000000000000
        0.000000000000000
        0.000000000000000
        0.000000001111438
        0.000000000793449
       -0.000000000578505
       -0.000000000652940
        0.000000000000000
        0.000000000000000
        0.000000000000000
        0.000000000000000
        0.000000000000000
        0.000000000000000
        0.000000000584339
       -0.000000000540601
        0.000000000000000
        0.000000000000000
        0.000000000000000
        0.000000000000000
        0.000000000000000
        0.000000000000000
        0.000000000000000
        0.000000000000000
        0.000000000000000
        0.000000000000000
        0.000000000000000
        0.000000000000000
        0.000000000000000
        0.000000000000000
        0.000000000000000
        0.000000000000000
        0.000000000000000
        0.000000000000000
        0.000000000000000
        0.000000000000000
        0.000000000000000
        0.000000000000000
        0.000000000000000
        0.000000000000000
        0.000000000000000
        0.000000000000000
        0.000000000000000
        0.000000000000000
        0.000000000000000
        0.000000000000000
        0.000000000000000
        0.000000000000000
        0.000000000000000
        0.000000000000000
        0.000000000000000
        0.000000000000000
        0.000000000000000
        0.000000000000000
        0.000000000000000
        0.000000000000000
        0.000000000000000
        0.000000000000000
       -0.000000000010085
        0.000000000332804
        0.000000000000000
        0.000000000000000
        0.000000000000000
        0.000000000000000
        0.000000000000000
        0.000000000000000
        0.000000000000000
       -0.000000000010085
        0.000000000986541
       -0.000000000010797
        0.000000000000000
        0.000000000000000
        0.000000000000000
        0.000000000000000
        0.000000000000000
        0.000000000000000
        0.000000000000000
        0.000000000333230
       -0.000000000010797
        0.000000000000000
        0.000000000000000
        0.000000000000000
        0.000000000000000
        0.000000000000000
        0.000000000000000
        0.000000000000000
        0.000000000000000
        0.000000000000000
        0.000000000000000
        0.000000000000000
        0.000000000000000
        0.000000000000000
        0.000000000000000
        0.000000000000000
        0.000000000000000
        0.000000000000000
        0.000000000000000
        0.000000000000000
        0.000000000000000
        0.000000000000000
        0.000000000000000
        0.000000000000000
        0.000000000000000
        0.000000000000000
        0.000000000000000
        0.000000000000000
        0.000000000000000
        0.000000000000000
        0.000000000000000
END_DATAGRID_3D
END_BLOCK_DATAGRID_3D
