ATOMS
         C    7.558905    7.558905    7.558905
         H    8.755769    8.755769    8.755769
         H    6.362040    6.362040    8.755769
         H    8.755769    6.362040    6.362040
         H    6.362040    8.755769    6.362040
BEGIN_BLOCK_DATAGRID_3D
units: coords = b, function = sqrt(b^-3)
BEGIN_DATAGRID_3D_function
      9      9      9
0.0 0.0 0.0
   15.117809    0.000000    0.000000
    0.000000   15.117809    0.000000
    0.000000    0.000000   15.117809
        0.000000000000000
        0.000000000000000
        0.000000000000000
        0.000000000000000
        0.000000000000000
        0.000000000000000
        0.000000000000000
        0.000000000000000
        0.000000000000000
        0.000000000000000
        0.000000000000000
        0.000000000000000
        0.000000000000000
        0.000000000000000
        0.000000000000000
        0.000000000000000
        0.000000000000000
        0.000000000000000
        0.000000000000000
        0.000000000000000
        0.000000000000000
        0.000000000000000
        0.000000000000000
        0.000000000000000
        0.000000000000000
        0.000000000000000
        0.000000000000000
        0.000000000000000
        0.000000000000000
        0.000000000000000
        0.000000000000000
        0.000273926825157
        0.000192702008206
        0.000000000000000
        0.000000000000000
        0.000000000000000
        0.000000000000000
        0.000000000000000
        0.000000000000000
        0.000433300098305
        0.000547725028445
        0.000300191881685
        0.000000000000000
        0.000000000000000
        0.000000000000000
        0.000000000000000
        0.000000000000000
        0.000000000000000
        0.000431529833343
        0.000460890122898
        0.000000000000000
        0.000000000000000
        0.000000000000000
        0.000000000000000
        0.000000000000000
        0.000000000000000
        0.000000000000000
        0.000000000000000
        0.000000000000000
        0.000000000000000
        0.000000000000000
        0.000000000000000
        0.000000000000000
        0.000000000000000
        0.000000000000000
        0.000000000000000
        0.000000000000000
        0.000000000000000
        0.000000000000000
        0.000000000000000
        0.000000000000000
        0.000000000000000
        0.000000000000000
        0.000000000000000
        0.000000000000000
        0.000000000000000
        0.000000000000000
        0.000000000000000
        0.000000000000000
        0.000000000000000
        0.000000000000000
        0.000000000000000
        0.000000000000000
        0.000000000000000
        0.000000000000000
        0.000000000000000
        0.000000000000000
        0.000000000000000
        0.000000000000000
        0.000000000000000
        0.000000000000000
        0.000000000000000
        0.000000000000000
        0.000000000000000
        0.000008618347539
       -0.000016025919027
        0.000000000000000
        0.000000000000000
        0.000000000000000
        0.000000000000000
        0.000000000000000
        0.000000000000000
        0.000310509920659
        0.000342213513469
        0.000149659857786
        0.000017004424372
        0.000000000000000
        0.000000000000000
        0.000000000000000
        0.000000000000000
        0.000638853282243
        0.001357925692674
        0.001559416668927
        0.000871887698226
        0.000238579815402
        0.000032050224895
        0.000000000000000
        0.000000000000000
        0.000386657597933
        0.001377406178383
        0.002827165125817
        0.003178543131239
        0.001820164056069
        0.000562973477822
        0.000087152838513
        0.000000000000000
        0.000000000000000
        0.000408972474665
        0.001458148338153
        0.002895831053806
        0.003098401771422
        0.001725169735414
        0.000516235158910
        0.000000000000000
        0.000000000000000
        0.000000000000000
        0.000000000000000
        0.000766635281539
        0.001557838247488
        0.001615153984910
        0.000852665064003
        0.000000000000000
        0.000000000000000
        0.000000000000000
        0.000000000000000
        0.000000000000000
        0.000000000000000
        0.000463958766882
        0.000474419357342
        0.000000000000000
        0.000000000000000
        0.000000000000000
        0.000000000000000
        0.000000000000000
        0.000000000000000
        0.000000000000000
        0.000000000000000
        0.000000000000000
        0.000000000000000
        0.000000000000000
        0.000000000000000
        0.000000000000000
        0.000000000000000
        0.000000000000000
        0.000000000000000
        0.000000000000000
        0.000000000000000
        0.000000000000000
        0.000000000000000
        0.000000000000000
        0.000000000000000
        0.000000000000000
        0.000000000000000
        0.000000000000000
       -0.000095845923343
       -0.000245011819790
       -0.000290955996768
       -0.000170475335497
        0.000000000000000
        0.000000000000000
        0.000000000000000
        0.000000000000000
        0.000312429293270
        0.000506186506410
        0.000189027185092
       -0.000370424889181
       -0.000344659343036
       -0.000128330802511
        0.000000000000000
        0.000000000000000
        0.000508403322894
        0.001947517844767
        0.004222293596912
        0.004613761606654
        0.001454586162974
        0.000024233965882
       -0.000104377157474
        0.000000000000000
        0.000000000000000
        0.001186118440175
        0.004781982513337
        0.012012401902964
        0.014555529959117
        0.006248523907713
        0.001256306096355
        0.000103658817066
        0.000000000000000
        0.000000000000000
        0.001311594050308
        0.005336269903060
        0.013078695331149
        0.013706324799774
        0.006181880004193
        0.001547150145587
        0.000196471860147
        0.000000000000000
        0.000000000000000
        0.000703287936831
        0.002737623794107
        0.005777583760357
        0.005922219898386
        0.003022629052828
        0.000812387121604
        0.000000000000000
        0.000000000000000
        0.000000000000000
        0.000000000000000
        0.000752233219243
        0.001523324147071
        0.001568230609291
        0.000819558800445
        0.000000000000000
        0.000000000000000
        0.000000000000000
        0.000000000000000
        0.000000000000000
        0.000000000000000
        0.000000000000000
        0.000000000000000
        0.000000000000000
        0.000000000000000
        0.000000000000000
        0.000000000000000
        0.000000000000000
        0.000000000000000
        0.000000000000000
        0.000000000000000
       -0.000237140482665
       -0.000213598119530
        0.000000000000000
        0.000000000000000
        0.000000000000000
        0.000000000000000
        0.000000000000000
       -0.000244721343634
       -0.000745306399868
       -0.001287753480837
       -0.001158888856962
       -0.000584275936244
       -0.000177057547918
        0.000000000000000
        0.000000000000000
        0.000031983937386
       -0.000152716226136
       -0.001327734398467
       -0.003490842416427
       -0.003614473816832
       -0.001697108954881
       -0.000485959320111
        0.000000000000000
        0.000000000000000
        0.000689111871117
        0.002469336514081
        0.004817310743800
        0.001756460748572
       -0.004714063497048
       -0.002465053338135
       -0.000702564559503
       -0.000123046049811
        0.000267653690737
        0.001910017173944
        0.009419043890326
        0.030843637333337
        0.038616512946286
        0.009236115524935
       -0.000042259532873
       -0.000397634141703
       -0.000099152048401
        0.000298448635285
        0.002229255236699
        0.011417582214122
        0.038219906149509
        0.038536217324007
        0.012280547584821
        0.001848851424785
        0.000077580111628
        0.000000000000000
        0.000000000000000
        0.001282858498119
        0.005204081159507
        0.012681664900430
        0.013058821947420
        0.005729582557886
        0.001372561792160
        0.000156090154145
        0.000000000000000
        0.000000000000000
        0.000393225785767
        0.001394950936939
        0.002736758328084
        0.002870920387226
        0.001553768435484
        0.000442810381974
        0.000000000000000
        0.000000000000000
        0.000000000000000
        0.000000000000000
        0.000000000000000
        0.000399689617413
        0.000420078426131
        0.000000000000000
        0.000000000000000
        0.000000000000000
        0.000000000000000
        0.000000000000000
        0.000000000000000
        0.000000000000000
       -0.000308058897689
       -0.000466638625400
       -0.000318000479591
        0.000000000000000
        0.000000000000000
        0.000000000000000
        0.000000000000000
       -0.000162655357610
       -0.000711196266414
       -0.001855087283505
       -0.002707763572809
       -0.002114946204929
       -0.000960420175789
       -0.000251138182114
        0.000000000000000
        0.000000000000000
       -0.000311591427877
       -0.001892700972210
       -0.006821455842743
       -0.012398854087029
       -0.008801354127962
       -0.003339116411915
       -0.000829738814474
        0.000000000000000
        0.000039159518915
        0.000084596443905
       -0.001281912333812
       -0.011417667374451
       -0.032889100813203
       -0.023007550088484
       -0.006974577961695
       -0.001478073374583
       -0.000204315057735
        0.000222905199996
        0.001305310063096
        0.006043517130091
        0.016197112509789
        0.000031711543133
       -0.016496953015037
       -0.006280824551246
       -0.001386046354086
       -0.000240874912552
        0.000259868427427
        0.001828685435389
        0.008886790794915
        0.028317252931353
        0.032904066974076
        0.005793661968732
       -0.000931774169950
       -0.000552475930068
       -0.000118874094162
        0.000000000000000
        0.001115830053680
        0.004429122944587
        0.010833679059197
        0.012402137098344
        0.004713765858400
        0.000701429342523
       -0.000023303065785
        0.000000000000000
        0.000000000000000
        0.000361179639607
        0.001260414533693
        0.002518947678648
        0.002708271592108
        0.001438605745070
        0.000389378703772
        0.000040590426278
        0.000000000000000
        0.000000000000000
        0.000000000000000
        0.000000000000000
        0.000384859572093
        0.000466683648010
        0.000239800071867
        0.000000000000000
        0.000000000000000
        0.000000000000000
        0.000000000000000
        0.000000000000000
        0.000000000000000
       -0.000319147723386
       -0.000388854450693
        0.000000000000000
        0.000000000000000
        0.000000000000000
        0.000000000000000
        0.000000000000000
       -0.000207253503683
       -0.000875920263163
       -0.002058914146251
       -0.002680200229848
       -0.001889377591658
       -0.000751246581923
        0.000000000000000
        0.000000000000000
        0.000000000000000
       -0.000575488127375
       -0.002934439430300
       -0.008811602873902
       -0.012114626951906
       -0.007579946342041
       -0.002884936198215
       -0.000660730652853
        0.000000000000000
       -0.000043482115522
       -0.000673306343584
       -0.005336113579883
       -0.023990372632468
       -0.036072224829574
       -0.019553485428242
       -0.006331497059423
       -0.001419855891198
        0.000000000000000
        0.000031374255605
        0.000003264705350
       -0.001814165429223
       -0.013944051776435
       -0.038601546785412
       -0.026450003644686
       -0.007864092598773
       -0.001632915162949
       -0.000224037103496
        0.000000000000000
        0.000576315544183
        0.001841372822253
        0.002323575631411
       -0.004204119652657
       -0.009782457590481
       -0.003857079601328
       -0.000948915940493
       -0.000152540188950
        0.000000000000000
        0.000443839570411
        0.001607197592399
        0.003144534565425
        0.002551113252674
       -0.000329076729263
       -0.000663290784561
       -0.000264366400249
        0.000000000000000
        0.000000000000000
        0.000000000000000
        0.000541495104007
        0.001074830511224
        0.001097789442220
        0.000468160351177
        0.000044581452707
       -0.000020180932919
        0.000000000000000
        0.000000000000000
        0.000000000000000
        0.000000000000000
        0.000000000000000
        0.000206006593391
        0.000131560369309
        0.000000000000000
        0.000000000000000
        0.000000000000000
        0.000000000000000
        0.000000000000000
        0.000000000000000
        0.000000000000000
        0.000000000000000
        0.000000000000000
        0.000000000000000
        0.000000000000000
        0.000000000000000
        0.000000000000000
        0.000000000000000
       -0.000503093437014
       -0.001166841786208
       -0.001422475602104
       -0.000898328523315
        0.000000000000000
        0.000000000000000
        0.000000000000000
        0.000000000000000
       -0.000375105133658
       -0.001718606010142
       -0.004248937867823
       -0.005394719383458
       -0.003530848472054
       -0.001293686475877
        0.000000000000000
        0.000000000000000
        0.000000000000000
       -0.000604223679565
       -0.003066628173853
       -0.009208633304621
       -0.012762129804260
       -0.008032243788348
       -0.003059524551643
       -0.000701112358856
        0.000000000000000
        0.000000000000000
       -0.000381879814372
       -0.002245560540960
       -0.008000178686510
       -0.014552246947802
       -0.010336112177274
       -0.003893993165747
       -0.000956700697325
        0.000000000000000
        0.000000000000000
       -0.000032579815097
       -0.000493036478504
       -0.002405493429954
       -0.005553490770407
       -0.005398136709069
       -0.002384633705324
       -0.000645948562885
        0.000000000000000
        0.000000000000000
        0.000000000000000
        0.000150663311612
       -0.000007041440961
       -0.000714986453033
       -0.001187395520290
       -0.000715076103642
       -0.000219736270607
        0.000000000000000
        0.000000000000000
        0.000000000000000
        0.000000000000000
        0.000173332669270
        0.000099569940951
       -0.000072358179234
       -0.000088497914118
        0.000000000000000
        0.000000000000000
        0.000000000000000
        0.000000000000000
        0.000000000000000
        0.000000000000000
        0.000000000000000
        0.000000000000000
        0.000000000000000
        0.000000000000000
        0.000000000000000
        0.000000000000000
        0.000000000000000
        0.000000000000000
        0.000000000000000
        0.000000000000000
        0.000000000000000
        0.000000000000000
        0.000000000000000
        0.000000000000000
        0.000000000000000
        0.000000000000000
        0.000000000000000
       -0.000366128925870
       -0.000420093354365
        0.000000000000000
        0.000000000000000
        0.000000000000000
        0.000000000000000
        0.000000000000000
        0.000000000000000
       -0.000517495499310
       -0.001201355886624
       -0.001469398977722
       -0.000931434786872
        0.000000000000000
        0.000000000000000
        0.000000000000000
        0.000000000000000
       -0.000223000192582
       -0.000939117664377
       -0.002217986871973
       -0.002907681614044
       -0.002060778891588
       -0.000824671358860
        0.000000000000000
        0.000000000000000
        0.000000000000000
       -0.000188133315935
       -0.000828187911104
       -0.002163304730674
       -0.003178035111939
       -0.002496504515928
       -0.001134014949838
       -0.000297700594350
        0.000000000000000
        0.000000000000000
        0.000000000000000
       -0.000342079521870
       -0.001028401581318
       -0.001749380707544
       -0.001562616204011
       -0.000778274298939
       -0.000229288705731
        0.000000000000000
        0.000000000000000
        0.000000000000000
        0.000000000000000
       -0.000233023174731
       -0.000487655392309
       -0.000512974033788
       -0.000275977673987
        0.000000000000000
        0.000000000000000
        0.000000000000000
        0.000000000000000
        0.000000000000000
        0.000000000000000
       -0.000062874255281
       -0.000083627673120
        0.000000000000000
        0.000000000000000
        0.000000000000000
        0.000000000000000
        0.000000000000000
        0.000000000000000
        0.000000000000000
        0.000000000000000
        0.000000000000000
        0.000000000000000
        0.000000000000000
        0.000000000000000
        0.000000000000000
        0.000000000000000
        0.000000000000000
        0.000000000000000
        0.000000000000000
        0.000000000000000
        0.000000000000000
        0.000000000000000
        0.000000000000000
        0.000000000000000
        0.000000000000000
        0.000000000000000
        0.000000000000000
        0.000000000000000
        0.000000000000000
        0.000000000000000
        0.000000000000000
        0.000000000000000
        0.000000000000000
        0.000000000000000
        0.000000000000000
        0.000000000000000
        0.000000000000000
        0.000000000000000
        0.000000000000000
        0.000000000000000
        0.000000000000000
        0.000000000000000
        0.000000000000000
        0.000000000000000
       -0.000350987939316
       -0.000429666147460
        0.000000000000000
        0.000000000000000
        0.000000000000000
        0.000000000000000
        0.000000000000000
        0.000000000000000
        0.000000000000000
       -0.000356499423901
       -0.000547680005834
       -0.000378392289409
        0.000000000000000
        0.000000000000000
        0.000000000000000
        0.000000000000000
        0.000000000000000
        0.000000000000000
        0.000000000000000
       -0.000305060714431
       -0.000274739758427
        0.000000000000000
        0.000000000000000
        0.000000000000000
        0.000000000000000
        0.000000000000000
        0.000000000000000
        0.000000000000000
        0.000000000000000
        0.000000000000000
        0.000000000000000
        0.000000000000000
        0.000000000000000
        0.000000000000000
        0.000000000000000
        0.000000000000000
        0.000000000000000
        0.000000000000000
        0.000000000000000
        0.000000000000000
        0.000000000000000
        0.000000000000000
        0.000000000000000
        0.000000000000000
        0.000000000000000
        0.000000000000000
        0.000000000000000
        0.000000000000000
        0.000000000000000
        0.000000000000000
        0.000000000000000
END_DATAGRID_3D
END_BLOCK_DATAGRID_3D
