ATOMS
         C    7.558905    7.558905    7.558905
         H    8.755769    8.755769    8.755769
         H    6.362040    6.362040    8.755769
         H    8.755769    6.362040    6.362040
         H    6.362040    8.755769    6.362040
BEGIN_BLOCK_DATAGRID_3D
units: coords = b, function = sqrt(b^-3)
BEGIN_DATAGRID_3D_function
      9      9      9
0.0 0.0 0.0
   15.117809    0.000000    0.000000
    0.000000   15.117809    0.000000
    0.000000    0.000000   15.117809
        0.000000000000000
        0.000000000000000
        0.000000000000000
        0.000000000000000
        0.000000000000000
        0.000000000000000
        0.000000000000000
        0.000000000000000
        0.000000000000000
        0.000000000000000
        0.000000000000000
        0.000000000000000
        0.000000000000000
        0.000000000000000
        0.000000000000000
        0.000000000000000
        0.000000000000000
        0.000000000000000
        0.000000000000000
        0.000000000000000
        0.000000000000000
        0.000000000000000
        0.000000000000000
        0.000000000000000
        0.000000000000000
        0.000000000000000
        0.000000000000000
        0.000000000000000
        0.000000000000000
        0.000000000000000
        0.000000000000000
        0.000719719703947
        0.000501355880258
        0.000000000000000
        0.000000000000000
        0.000000000000000
        0.000000000000000
        0.000000000000000
        0.000000000000000
        0.001151290678141
        0.001440110920516
        0.000781009435925
        0.000000000000000
        0.000000000000000
        0.000000000000000
        0.000000000000000
        0.000000000000000
        0.000000000000000
        0.001146555963209
        0.001212412023227
        0.000000000000000
        0.000000000000000
        0.000000000000000
        0.000000000000000
        0.000000000000000
        0.000000000000000
        0.000000000000000
        0.000000000000000
        0.000000000000000
        0.000000000000000
        0.000000000000000
        0.000000000000000
        0.000000000000000
        0.000000000000000
        0.000000000000000
        0.000000000000000
        0.000000000000000
        0.000000000000000
        0.000000000000000
        0.000000000000000
        0.000000000000000
        0.000000000000000
        0.000000000000000
        0.000000000000000
        0.000000000000000
        0.000000000000000
        0.000000000000000
        0.000000000000000
        0.000000000000000
        0.000000000000000
        0.000000000000000
        0.000000000000000
        0.000000000000000
        0.000000000000000
        0.000000000000000
        0.000000000000000
        0.000000000000000
        0.000000000000000
        0.000000000000000
        0.000000000000000
        0.000000000000000
        0.000000000000000
        0.000000000000000
        0.000000000000000
        0.000022620201176
       -0.000041707160379
        0.000000000000000
        0.000000000000000
        0.000000000000000
        0.000000000000000
        0.000000000000000
        0.000000000000000
        0.000825044630221
        0.000899790277656
        0.000389204304748
        0.000043728035770
        0.000000000000000
        0.000000000000000
        0.000000000000000
        0.000000000000000
        0.001716631282050
        0.003609630355022
        0.004099904557628
        0.002267510880109
        0.000613840724033
        0.000081556213028
        0.000000000000000
        0.000000000000000
        0.001050785896922
        0.003702169196870
        0.007515187376608
        0.008356866522903
        0.004733632921019
        0.001448418911031
        0.000221874594137
        0.000000000000000
        0.000000000000000
        0.001111396589880
        0.003919300473382
        0.007697682383201
        0.008146167012640
        0.004486681183696
        0.001328441832448
        0.000000000000000
        0.000000000000000
        0.000000000000000
        0.000000000000000
        0.002059993568169
        0.004141166245619
        0.004246436911601
        0.002218182078158
        0.000000000000000
        0.000000000000000
        0.000000000000000
        0.000000000000000
        0.000000000000000
        0.000000000000000
        0.001232696549635
        0.001247972408615
        0.000000000000000
        0.000000000000000
        0.000000000000000
        0.000000000000000
        0.000000000000000
        0.000000000000000
        0.000000000000000
        0.000000000000000
        0.000000000000000
        0.000000000000000
        0.000000000000000
        0.000000000000000
        0.000000000000000
        0.000000000000000
        0.000000000000000
        0.000000000000000
        0.000000000000000
        0.000000000000000
        0.000000000000000
        0.000000000000000
        0.000000000000000
        0.000000000000000
        0.000000000000000
        0.000000000000000
        0.000000000000000
       -0.000254737719011
       -0.000644185292985
       -0.000756648830580
       -0.000438705944867
        0.000000000000000
        0.000000000000000
        0.000000000000000
        0.000000000000000
        0.000839444694714
        0.001345540483827
        0.000496975187492
       -0.000963362653132
       -0.000886709844149
       -0.000326698135143
        0.000000000000000
        0.000000000000000
        0.001381543295215
        0.005234315496586
        0.011222604157451
        0.012129980267804
        0.003783252017092
        0.000062287393224
       -0.000265711389358
        0.000000000000000
        0.000000000000000
        0.003223625849694
        0.012851780280454
        0.031926627179783
        0.038268525086889
        0.016253312904171
        0.003232227417766
        0.000263801372972
        0.000000000000000
        0.000000000000000
        0.003564896224774
        0.014340948790489
        0.034763055322461
        0.036037101631704
        0.016078994353238
        0.003980380261262
        0.000500258640626
        0.000000000000000
        0.000000000000000
        0.001911163734268
        0.007358116865461
        0.015357676623593
        0.015570543154330
        0.007861139738947
        0.002090590576130
        0.000000000000000
        0.000000000000000
        0.000000000000000
        0.000000000000000
        0.002021292085680
        0.004049417405360
        0.004123073349719
        0.002132053065386
        0.000000000000000
        0.000000000000000
        0.000000000000000
        0.000000000000000
        0.000000000000000
        0.000000000000000
        0.000000000000000
        0.000000000000000
        0.000000000000000
        0.000000000000000
        0.000000000000000
        0.000000000000000
        0.000000000000000
        0.000000000000000
        0.000000000000000
        0.000000000000000
       -0.000623125661853
       -0.000555741674381
        0.000000000000000
        0.000000000000000
        0.000000000000000
        0.000000000000000
        0.000000000000000
       -0.000657648532701
       -0.001981130373249
       -0.003385672077212
       -0.003013889910808
       -0.001503178576868
       -0.000450699922772
        0.000000000000000
        0.000000000000000
        0.000086879327293
       -0.000410456602326
       -0.003528942883064
       -0.009177847617970
       -0.009400852811583
       -0.004366582347431
       -0.001236991277531
        0.000000000000000
        0.000000000000000
        0.001872810152209
        0.006635822457144
        0.012801682951277
        0.004617425556183
       -0.012262782666759
       -0.006345642172338
       -0.001787714277601
       -0.000309998990873
        0.000735048316377
        0.005193278424782
        0.025303896734360
        0.081950240464260
        0.101523973363038
        0.024040700569245
       -0.000111836116583
       -0.001011852389409
       -0.000249575007053
        0.000819460862242
        0.006062847122723
        0.030666325000058
        0.101573202150363
        0.101330585921645
        0.031954470719869
        0.004754933012750
        0.000197742650613
        0.000000000000000
        0.000000000000000
        0.003486797210267
        0.013985679851033
        0.033707762370473
        0.034334676471747
        0.014902596559407
        0.003531194810058
        0.000397457718351
        0.000000000000000
        0.000000000000000
        0.001068598663949
        0.003749441947107
        0.007274836921376
        0.007548075198584
        0.004040918859422
        0.001139494981110
        0.000000000000000
        0.000000000000000
        0.000000000000000
        0.000000000000000
        0.000000000000000
        0.001061954596492
        0.001105045282251
        0.000000000000000
        0.000000000000000
        0.000000000000000
        0.000000000000000
        0.000000000000000
        0.000000000000000
        0.000000000000000
       -0.000818560725023
       -0.001226867227809
       -0.000827386470210
        0.000000000000000
        0.000000000000000
        0.000000000000000
        0.000000000000000
       -0.000442060881003
       -0.001911517629729
       -0.004931199599745
       -0.007119191114094
       -0.005500257670192
       -0.002470916676833
       -0.000639342340691
        0.000000000000000
        0.000000000000000
       -0.000846901190704
       -0.005086806181955
       -0.018129764734329
       -0.032598416705350
       -0.022892921431792
       -0.008591336237394
       -0.002112068313981
        0.000000000000000
        0.000107772760502
        0.000229623503410
       -0.003445434661445
       -0.030329771626187
       -0.086472681339806
       -0.059864305203924
       -0.017951288264749
       -0.003761090241664
       -0.000515049278808
        0.000612404827094
        0.003549940619053
        0.016227872879744
        0.043036965209413
        0.000013715987439
       -0.042920969239456
       -0.016174163812111
       -0.003525859804291
       -0.000606893679083
        0.000713702734330
        0.004972154463570
        0.023873684650738
        0.075238653549491
        0.086504804861697
        0.015083379598667
       -0.002401288249011
       -0.001405802124809
       -0.000299301934705
        0.000000000000000
        0.003032592434859
        0.011903433820825
        0.028793871153475
        0.032606879175139
        0.012261303106642
        0.001804558806978
       -0.000059369673070
        0.000000000000000
        0.000000000000000
        0.000981551392559
        0.003387725132201
        0.006695881135032
        0.007120449755701
        0.003741327386508
        0.001001803424835
        0.000103346178265
        0.000000000000000
        0.000000000000000
        0.000000000000000
        0.000000000000000
        0.001022581712346
        0.001227044793294
        0.000623885529683
        0.000000000000000
        0.000000000000000
        0.000000000000000
        0.000000000000000
        0.000000000000000
        0.000000000000000
       -0.000847974545477
       -0.001022973578682
        0.000000000000000
        0.000000000000000
        0.000000000000000
        0.000000000000000
        0.000000000000000
       -0.000563212513267
       -0.002354336097918
       -0.005472977768309
       -0.007046657370890
       -0.004913681975375
       -0.001933297104431
        0.000000000000000
        0.000000000000000
        0.000000000000000
       -0.001564299900306
       -0.007886043830380
       -0.023421192491739
       -0.031852271967581
       -0.019715092072154
       -0.007422298928652
       -0.001682184043579
        0.000000000000000
       -0.000119002225892
       -0.001832242946667
       -0.014330964328722
       -0.063757492581772
       -0.094851535871730
       -0.050873192349135
       -0.016290031324966
       -0.003614494751315
        0.000000000000000
        0.000086427178455
        0.000008499542198
       -0.004875646745067
       -0.037041358540955
       -0.101491849841146
       -0.068821626174501
       -0.020240740397177
       -0.004155039977063
       -0.000564776206460
        0.000000000000000
        0.001566302943821
        0.004947919869157
        0.006175908160638
       -0.011051922100147
       -0.025446870146612
       -0.009929505078011
       -0.002414296063320
       -0.000384381653670
        0.000000000000000
        0.001206112420042
        0.004319617563249
        0.008358038943335
        0.006707107021208
       -0.000855821627801
       -0.001706755873706
       -0.000672919385924
        0.000000000000000
        0.000000000000000
        0.000000000000000
        0.001455024004462
        0.002857116443116
        0.002886209258729
        0.001217545097659
        0.000114746310131
       -0.000051408668905
        0.000000000000000
        0.000000000000000
        0.000000000000000
        0.000000000000000
        0.000000000000000
        0.000541248450988
        0.000342274504477
        0.000000000000000
        0.000000000000000
        0.000000000000000
        0.000000000000000
        0.000000000000000
        0.000000000000000
        0.000000000000000
        0.000000000000000
        0.000000000000000
        0.000000000000000
        0.000000000000000
        0.000000000000000
        0.000000000000000
        0.000000000000000
       -0.001351872449832
       -0.003101778720202
       -0.003739825088839
       -0.002337091273050
        0.000000000000000
        0.000000000000000
        0.000000000000000
        0.000000000000000
       -0.001019337880157
       -0.004619204321998
       -0.011294293660985
       -0.014183658604883
       -0.009182813997802
       -0.003329295407514
        0.000000000000000
        0.000000000000000
        0.000000000000000
       -0.001642398914812
       -0.008241312769835
       -0.024476485443728
       -0.033554697127537
       -0.020891489865985
       -0.007871484379855
       -0.001784984965854
        0.000000000000000
        0.000000000000000
       -0.001037934605538
       -0.006035152641583
       -0.021262520760637
       -0.038260062617099
       -0.026884931229320
       -0.010019004848183
       -0.002435239360022
        0.000000000000000
        0.000000000000000
       -0.000088551547879
       -0.001325154535663
       -0.006393508097180
       -0.014600720864565
       -0.014039926456476
       -0.006135625614362
       -0.001644199274097
        0.000000000000000
        0.000000000000000
        0.000000000000000
        0.000404779492253
       -0.000018679518712
       -0.001879808226682
       -0.003088075557017
       -0.001839699826369
       -0.000559393024239
        0.000000000000000
        0.000000000000000
        0.000000000000000
        0.000000000000000
        0.000460523795084
        0.000261829214702
       -0.000188176341596
       -0.000227770146905
        0.000000000000000
        0.000000000000000
        0.000000000000000
        0.000000000000000
        0.000000000000000
        0.000000000000000
        0.000000000000000
        0.000000000000000
        0.000000000000000
        0.000000000000000
        0.000000000000000
        0.000000000000000
        0.000000000000000
        0.000000000000000
        0.000000000000000
        0.000000000000000
        0.000000000000000
        0.000000000000000
        0.000000000000000
        0.000000000000000
        0.000000000000000
        0.000000000000000
        0.000000000000000
       -0.000972788949635
       -0.001105116251584
        0.000000000000000
        0.000000000000000
        0.000000000000000
        0.000000000000000
        0.000000000000000
        0.000000000000000
       -0.001390573932320
       -0.003193527560461
       -0.003863188650721
       -0.002423220285821
        0.000000000000000
        0.000000000000000
        0.000000000000000
        0.000000000000000
       -0.000606010439198
       -0.002524194624193
       -0.005895823230135
       -0.007644749184946
       -0.005359444299649
       -0.002122243955769
        0.000000000000000
        0.000000000000000
        0.000000000000000
       -0.000511295385366
       -0.002225961694398
       -0.005750505841321
       -0.008355607881296
       -0.006492563204703
       -0.002917532163028
       -0.000757870756562
        0.000000000000000
        0.000000000000000
        0.000000000000000
       -0.000919255810290
       -0.002733644285155
       -0.004599367376111
       -0.004063855693258
       -0.002002272990769
       -0.000583664804705
        0.000000000000000
        0.000000000000000
        0.000000000000000
        0.000000000000000
       -0.000619258554148
       -0.001282146355938
       -0.001334029476924
       -0.000710204127542
        0.000000000000000
        0.000000000000000
        0.000000000000000
        0.000000000000000
        0.000000000000000
        0.000000000000000
       -0.000165244154116
       -0.000217599931324
        0.000000000000000
        0.000000000000000
        0.000000000000000
        0.000000000000000
        0.000000000000000
        0.000000000000000
        0.000000000000000
        0.000000000000000
        0.000000000000000
        0.000000000000000
        0.000000000000000
        0.000000000000000
        0.000000000000000
        0.000000000000000
        0.000000000000000
        0.000000000000000
        0.000000000000000
        0.000000000000000
        0.000000000000000
        0.000000000000000
        0.000000000000000
        0.000000000000000
        0.000000000000000
        0.000000000000000
        0.000000000000000
        0.000000000000000
        0.000000000000000
        0.000000000000000
        0.000000000000000
        0.000000000000000
        0.000000000000000
        0.000000000000000
        0.000000000000000
        0.000000000000000
        0.000000000000000
        0.000000000000000
        0.000000000000000
        0.000000000000000
        0.000000000000000
        0.000000000000000
        0.000000000000000
        0.000000000000000
       -0.000932575912194
       -0.001130340319658
        0.000000000000000
        0.000000000000000
        0.000000000000000
        0.000000000000000
        0.000000000000000
        0.000000000000000
        0.000000000000000
       -0.000947269690818
       -0.001439933355031
       -0.000984510376452
        0.000000000000000
        0.000000000000000
        0.000000000000000
        0.000000000000000
        0.000000000000000
        0.000000000000000
        0.000000000000000
       -0.000801596914812
       -0.000714823050163
        0.000000000000000
        0.000000000000000
        0.000000000000000
        0.000000000000000
        0.000000000000000
        0.000000000000000
        0.000000000000000
        0.000000000000000
        0.000000000000000
        0.000000000000000
        0.000000000000000
        0.000000000000000
        0.000000000000000
        0.000000000000000
        0.000000000000000
        0.000000000000000
        0.000000000000000
        0.000000000000000
        0.000000000000000
        0.000000000000000
        0.000000000000000
        0.000000000000000
        0.000000000000000
        0.000000000000000
        0.000000000000000
        0.000000000000000
        0.000000000000000
        0.000000000000000
        0.000000000000000
        0.000000000000000
END_DATAGRID_3D
END_BLOCK_DATAGRID_3D
