ATOMS
         C    7.558905    7.558905    7.558905
         H    8.755769    8.755769    8.755769
         H    6.362040    6.362040    8.755769
         H    8.755769    6.362040    6.362040
         H    6.362040    8.755769    6.362040
BEGIN_BLOCK_DATAGRID_3D
units: coords = b, function = 1/hbar/H*b^-2
BEGIN_DATAGRID_3D_function
      9      9      9
0.0 0.0 0.0
   15.117809    0.000000    0.000000
    0.000000   15.117809    0.000000
    0.000000    0.000000   15.117809
        0.000000000000000
        0.000000000000000
        0.000000000000000
        0.000000000000000
        0.000000000000000
        0.000000000000000
        0.000000000000000
        0.000000000000000
        0.000000000000000
        0.000000000000000
        0.000000000000000
        0.000000000000000
        0.000000000000000
        0.000000000000000
        0.000000000000000
        0.000000000000000
        0.000000000000000
        0.000000000000000
        0.000000000000000
        0.000000000000000
        0.000000000000000
        0.000000000000000
        0.000000000000000
        0.000000000000000
        0.000000000000000
        0.000000000000000
        0.000000000000000
        0.000000000000000
        0.000000000000000
        0.000000000000000
        0.000000000000000
       -0.000000000129293
        0.000000000007663
        0.000000000000000
        0.000000000000000
        0.000000000000000
        0.000000000000000
        0.000000000000000
        0.000000000000000
        0.000000000007308
       -0.000000000383524
        0.000000000007663
        0.000000000000000
        0.000000000000000
        0.000000000000000
        0.000000000000000
        0.000000000000000
        0.000000000000000
        0.000000000007308
       -0.000000000129755
        0.000000000000000
        0.000000000000000
        0.000000000000000
        0.000000000000000
        0.000000000000000
        0.000000000000000
        0.000000000000000
        0.000000000000000
        0.000000000000000
        0.000000000000000
        0.000000000000000
        0.000000000000000
        0.000000000000000
        0.000000000000000
        0.000000000000000
        0.000000000000000
        0.000000000000000
        0.000000000000000
        0.000000000000000
        0.000000000000000
        0.000000000000000
        0.000000000000000
        0.000000000000000
        0.000000000000000
        0.000000000000000
        0.000000000000000
        0.000000000000000
        0.000000000000000
        0.000000000000000
        0.000000000000000
        0.000000000000000
        0.000000000000000
        0.000000000000000
        0.000000000000000
        0.000000000000000
        0.000000000000000
        0.000000000000000
        0.000000000000000
        0.000000000000000
        0.000000000000000
        0.000000000000000
        0.000000000000000
        0.000000000000000
        0.000000000000000
       -0.000000000237672
        0.000000000220942
        0.000000000000000
        0.000000000000000
        0.000000000000000
        0.000000000000000
        0.000000000000000
        0.000000000000000
       -0.000000000439900
       -0.000000000281267
        0.000000000218662
        0.000000000248238
        0.000000000000000
        0.000000000000000
        0.000000000000000
        0.000000000000000
       -0.000000000280164
       -0.000000000637010
        0.000000000294867
       -0.000000000319835
        0.000000000364691
       -0.000000000000201
        0.000000000000000
        0.000000000000000
        0.000000000000239
       -0.000000000477522
        0.000000000258529
       -0.000000000227405
        0.000000000269224
       -0.000000000473190
       -0.000000000000201
        0.000000000000000
        0.000000000000000
        0.000000000000239
        0.000000000363047
       -0.000000000331421
        0.000000000280941
       -0.000000000635402
       -0.000000000278479
        0.000000000000000
        0.000000000000000
        0.000000000000000
        0.000000000000000
        0.000000000248249
        0.000000000218494
       -0.000000000286673
       -0.000000000437201
        0.000000000000000
        0.000000000000000
        0.000000000000000
        0.000000000000000
        0.000000000000000
        0.000000000000000
        0.000000000219464
       -0.000000000240438
        0.000000000000000
        0.000000000000000
        0.000000000000000
        0.000000000000000
        0.000000000000000
        0.000000000000000
        0.000000000000000
        0.000000000000000
        0.000000000000000
        0.000000000000000
        0.000000000000000
        0.000000000000000
        0.000000000000000
        0.000000000000000
        0.000000000000000
        0.000000000000000
        0.000000000000000
        0.000000000000000
        0.000000000000000
        0.000000000000000
        0.000000000000000
        0.000000000000000
        0.000000000000000
        0.000000000000000
        0.000000000000000
       -0.000000000630926
        0.000000000067562
       -0.000000000075633
        0.000000000416271
        0.000000000000000
        0.000000000000000
        0.000000000000000
        0.000000000000000
       -0.000000000847120
        0.000000000143632
        0.000000001640703
       -0.000000002438954
       -0.000000000622295
        0.000000000127458
        0.000000000000000
        0.000000000000000
       -0.000000000117548
       -0.000000000467691
        0.000000006217957
       -0.000000003726707
       -0.000000011531526
       -0.000000001556920
        0.000000000115851
        0.000000000000000
        0.000000000000000
       -0.000000000260744
        0.000000001805835
       -0.000000004228119
       -0.000000011130042
       -0.000000004290649
        0.000000001837923
       -0.000000000258601
        0.000000000000000
        0.000000000000000
        0.000000000112769
       -0.000000001582582
       -0.000000011561480
       -0.000000003781135
        0.000000006223911
       -0.000000000455056
       -0.000000000116946
        0.000000000000000
        0.000000000000000
        0.000000000126259
       -0.000000000615392
       -0.000000002512711
        0.000000001630567
        0.000000000153673
       -0.000000000838390
        0.000000000000000
        0.000000000000000
        0.000000000000000
        0.000000000000000
        0.000000000414376
       -0.000000000077024
        0.000000000062755
       -0.000000000628710
        0.000000000000000
        0.000000000000000
        0.000000000000000
        0.000000000000000
        0.000000000000000
        0.000000000000000
        0.000000000000000
        0.000000000000000
        0.000000000000000
        0.000000000000000
        0.000000000000000
        0.000000000000000
        0.000000000000000
        0.000000000000000
        0.000000000000000
        0.000000000000000
       -0.000000000326729
        0.000000000222432
        0.000000000000000
        0.000000000000000
        0.000000000000000
        0.000000000000000
        0.000000000000000
       -0.000000000394632
       -0.000000001263198
       -0.000000003260237
        0.000000001977008
        0.000000001627215
       -0.000000000108102
        0.000000000000000
        0.000000000000000
        0.000000000071347
       -0.000000001985182
        0.000000029416883
        0.000000053380757
       -0.000000038388748
       -0.000000032267446
        0.000000001999706
        0.000000000000000
        0.000000000000000
       -0.000000001996518
        0.000000026411236
        0.000000092132287
       -0.000000150769017
       -0.000000289792344
       -0.000000020059675
        0.000000001424094
        0.000000000006191
        0.000000000005881
       -0.000000003710992
        0.000000053620440
       -0.000000154677095
       -0.000000372937442
       -0.000000156749504
        0.000000053787939
       -0.000000003710922
        0.000000000006191
        0.000000000005881
        0.000000001404090
       -0.000000020099472
       -0.000000287838910
       -0.000000149630413
        0.000000092548524
        0.000000026486838
       -0.000000002004875
        0.000000000000000
        0.000000000000000
        0.000000001990073
       -0.000000032236051
       -0.000000038936417
        0.000000053518164
        0.000000029509722
       -0.000000001985279
        0.000000000072709
        0.000000000000000
        0.000000000000000
       -0.000000000109655
        0.000000001622974
        0.000000001974731
       -0.000000003274719
       -0.000000001266974
       -0.000000000392579
        0.000000000000000
        0.000000000000000
        0.000000000000000
        0.000000000000000
        0.000000000000000
        0.000000000224360
       -0.000000000324624
        0.000000000000000
        0.000000000000000
        0.000000000000000
        0.000000000000000
        0.000000000000000
        0.000000000000000
        0.000000000000000
       -0.000000000153586
       -0.000000000002199
        0.000000000151532
        0.000000000000000
        0.000000000000000
        0.000000000000000
        0.000000000000000
        0.000000000057029
       -0.000000000638874
       -0.000000006138754
        0.000000000025382
        0.000000006159174
        0.000000000644398
       -0.000000000054006
        0.000000000000000
        0.000000000000000
       -0.000000000965916
        0.000000013318067
        0.000000125677795
       -0.000000000631897
       -0.000000126025526
       -0.000000013346027
        0.000000000977080
        0.000000000000000
        0.000000000000913
       -0.000000005802616
        0.000000106659764
        0.000000458178571
       -0.000000000505945
       -0.000000460994292
       -0.000000106957422
        0.000000005846850
       -0.000000000000214
        0.000000000000000
        0.000000000000000
       -0.000000000000000
        0.000000000000000
        0.000000000000000
       -0.000000000000000
        0.000000000000000
        0.000000000000000
        0.000000000000000
       -0.000000000000913
        0.000000005802616
       -0.000000106659764
       -0.000000458178571
        0.000000000505945
        0.000000460994292
        0.000000106957422
       -0.000000005846850
        0.000000000000214
        0.000000000000000
        0.000000000965916
       -0.000000013318067
       -0.000000125677795
        0.000000000631897
        0.000000126025526
        0.000000013346027
       -0.000000000977080
        0.000000000000000
        0.000000000000000
       -0.000000000057029
        0.000000000638874
        0.000000006138754
       -0.000000000025382
       -0.000000006159174
       -0.000000000644398
        0.000000000054006
        0.000000000000000
        0.000000000000000
        0.000000000000000
        0.000000000000000
        0.000000000153586
        0.000000000002199
       -0.000000000151532
        0.000000000000000
        0.000000000000000
        0.000000000000000
        0.000000000000000
        0.000000000000000
        0.000000000000000
       -0.000000000224360
        0.000000000324624
        0.000000000000000
        0.000000000000000
        0.000000000000000
        0.000000000000000
        0.000000000000000
        0.000000000109655
       -0.000000001622974
       -0.000000001974731
        0.000000003274719
        0.000000001266974
        0.000000000392579
        0.000000000000000
        0.000000000000000
        0.000000000000000
       -0.000000001990073
        0.000000032236051
        0.000000038936417
       -0.000000053518164
       -0.000000029509722
        0.000000001985279
       -0.000000000072709
        0.000000000000000
       -0.000000000005881
       -0.000000001404090
        0.000000020099472
        0.000000287838910
        0.000000149630413
       -0.000000092548524
       -0.000000026486838
        0.000000002004875
        0.000000000000000
       -0.000000000005881
        0.000000003710992
       -0.000000053620440
        0.000000154677095
        0.000000372937442
        0.000000156749504
       -0.000000053787939
        0.000000003710922
       -0.000000000006191
        0.000000000000000
        0.000000001996518
       -0.000000026411236
       -0.000000092132287
        0.000000150769017
        0.000000289792344
        0.000000020059675
       -0.000000001424094
       -0.000000000006191
        0.000000000000000
       -0.000000000071347
        0.000000001985182
       -0.000000029416883
       -0.000000053380757
        0.000000038388748
        0.000000032267446
       -0.000000001999706
        0.000000000000000
        0.000000000000000
        0.000000000000000
        0.000000000394632
        0.000000001263198
        0.000000003260237
       -0.000000001977008
       -0.000000001627215
        0.000000000108102
        0.000000000000000
        0.000000000000000
        0.000000000000000
        0.000000000000000
        0.000000000000000
        0.000000000326729
       -0.000000000222432
        0.000000000000000
        0.000000000000000
        0.000000000000000
        0.000000000000000
        0.000000000000000
        0.000000000000000
        0.000000000000000
        0.000000000000000
        0.000000000000000
        0.000000000000000
        0.000000000000000
        0.000000000000000
        0.000000000000000
        0.000000000000000
       -0.000000000414376
        0.000000000077024
       -0.000000000062755
        0.000000000628710
        0.000000000000000
        0.000000000000000
        0.000000000000000
        0.000000000000000
       -0.000000000126259
        0.000000000615392
        0.000000002512711
       -0.000000001630567
       -0.000000000153673
        0.000000000838390
        0.000000000000000
        0.000000000000000
        0.000000000000000
       -0.000000000112769
        0.000000001582582
        0.000000011561480
        0.000000003781135
       -0.000000006223911
        0.000000000455056
        0.000000000116946
        0.000000000000000
        0.000000000000000
        0.000000000260744
       -0.000000001805835
        0.000000004228119
        0.000000011130042
        0.000000004290649
       -0.000000001837923
        0.000000000258601
        0.000000000000000
        0.000000000000000
        0.000000000117548
        0.000000000467691
       -0.000000006217957
        0.000000003726707
        0.000000011531526
        0.000000001556920
       -0.000000000115851
        0.000000000000000
        0.000000000000000
        0.000000000000000
        0.000000000847120
       -0.000000000143632
       -0.000000001640703
        0.000000002438954
        0.000000000622295
       -0.000000000127458
        0.000000000000000
        0.000000000000000
        0.000000000000000
        0.000000000000000
        0.000000000630926
       -0.000000000067562
        0.000000000075633
       -0.000000000416271
        0.000000000000000
        0.000000000000000
        0.000000000000000
        0.000000000000000
        0.000000000000000
        0.000000000000000
        0.000000000000000
        0.000000000000000
        0.000000000000000
        0.000000000000000
        0.000000000000000
        0.000000000000000
        0.000000000000000
        0.000000000000000
        0.000000000000000
        0.000000000000000
        0.000000000000000
        0.000000000000000
        0.000000000000000
        0.000000000000000
        0.000000000000000
        0.000000000000000
        0.000000000000000
       -0.000000000219464
        0.000000000240438
        0.000000000000000
        0.000000000000000
        0.000000000000000
        0.000000000000000
        0.000000000000000
        0.000000000000000
       -0.000000000248249
       -0.000000000218494
        0.000000000286673
        0.000000000437201
        0.000000000000000
        0.000000000000000
        0.000000000000000
        0.000000000000000
       -0.000000000000239
       -0.000000000363047
        0.000000000331421
       -0.000000000280941
        0.000000000635402
        0.000000000278479
        0.000000000000000
        0.000000000000000
        0.000000000000000
       -0.000000000000239
        0.000000000477522
       -0.000000000258529
        0.000000000227405
       -0.000000000269224
        0.000000000473190
        0.000000000000201
        0.000000000000000
        0.000000000000000
        0.000000000000000
        0.000000000280164
        0.000000000637010
       -0.000000000294867
        0.000000000319835
       -0.000000000364691
        0.000000000000201
        0.000000000000000
        0.000000000000000
        0.000000000000000
        0.000000000000000
        0.000000000439900
        0.000000000281267
       -0.000000000218662
       -0.000000000248238
        0.000000000000000
        0.000000000000000
        0.000000000000000
        0.000000000000000
        0.000000000000000
        0.000000000000000
        0.000000000237672
       -0.000000000220942
        0.000000000000000
        0.000000000000000
        0.000000000000000
        0.000000000000000
        0.000000000000000
        0.000000000000000
        0.000000000000000
        0.000000000000000
        0.000000000000000
        0.000000000000000
        0.000000000000000
        0.000000000000000
        0.000000000000000
        0.000000000000000
        0.000000000000000
        0.000000000000000
        0.000000000000000
        0.000000000000000
        0.000000000000000
        0.000000000000000
        0.000000000000000
        0.000000000000000
        0.000000000000000
        0.000000000000000
        0.000000000000000
        0.000000000000000
        0.000000000000000
        0.000000000000000
        0.000000000000000
        0.000000000000000
        0.000000000000000
        0.000000000000000
        0.000000000000000
        0.000000000000000
        0.000000000000000
        0.000000000000000
        0.000000000000000
        0.000000000000000
        0.000000000000000
        0.000000000000000
        0.000000000000000
        0.000000000000000
       -0.000000000007308
        0.000000000129755
        0.000000000000000
        0.000000000000000
        0.000000000000000
        0.000000000000000
        0.000000000000000
        0.000000000000000
        0.000000000000000
       -0.000000000007308
        0.000000000383524
       -0.000000000007663
        0.000000000000000
        0.000000000000000
        0.000000000000000
        0.000000000000000
        0.000000000000000
        0.000000000000000
        0.000000000000000
        0.000000000129293
       -0.000000000007663
        0.000000000000000
        0.000000000000000
        0.000000000000000
        0.000000000000000
        0.000000000000000
        0.000000000000000
        0.000000000000000
        0.000000000000000
        0.000000000000000
        0.000000000000000
        0.000000000000000
        0.000000000000000
        0.000000000000000
        0.000000000000000
        0.000000000000000
        0.000000000000000
        0.000000000000000
        0.000000000000000
        0.000000000000000
        0.000000000000000
        0.000000000000000
        0.000000000000000
        0.000000000000000
        0.000000000000000
        0.000000000000000
        0.000000000000000
        0.000000000000000
        0.000000000000000
        0.000000000000000
        0.000000000000000
END_DATAGRID_3D
END_BLOCK_DATAGRID_3D
