ATOMS
         C    7.558905    7.558905    7.558905
         H    8.755769    8.755769    8.755769
         H    6.362040    6.362040    8.755769
         H    8.755769    6.362040    6.362040
         H    6.362040    8.755769    6.362040
BEGIN_BLOCK_DATAGRID_3D
units: coords = b, function = sqrt(b^-3)
BEGIN_DATAGRID_3D_function
      9      9      9
0.0 0.0 0.0
   15.117809    0.000000    0.000000
    0.000000   15.117809    0.000000
    0.000000    0.000000   15.117809
        0.000000000000000
        0.000000000000000
        0.000000000000000
        0.000000000000000
        0.000000000000000
        0.000000000000000
        0.000000000000000
        0.000000000000000
        0.000000000000000
        0.000000000000000
        0.000000000000000
        0.000000000000000
        0.000000000000000
        0.000000000000000
        0.000000000000000
        0.000000000000000
        0.000000000000000
        0.000000000000000
        0.000000000000000
        0.000000000000000
        0.000000000000000
        0.000000000000000
        0.000000000000000
        0.000000000000000
        0.000000000000000
        0.000000000000000
        0.000000000000000
        0.000000000000000
        0.000000000000000
        0.000000000000000
        0.000000000000000
       -0.000141399033978
        0.000053413265898
        0.000000000000000
        0.000000000000000
        0.000000000000000
        0.000000000000000
        0.000000000000000
        0.000000000000000
       -0.000313197456948
       -0.000131040168651
        0.000137233795709
        0.000000000000000
        0.000000000000000
        0.000000000000000
        0.000000000000000
        0.000000000000000
        0.000000000000000
       -0.000203406431884
       -0.000034336660516
        0.000000000000000
        0.000000000000000
        0.000000000000000
        0.000000000000000
        0.000000000000000
        0.000000000000000
        0.000000000000000
        0.000000000000000
        0.000000000000000
        0.000000000000000
        0.000000000000000
        0.000000000000000
        0.000000000000000
        0.000000000000000
        0.000000000000000
        0.000000000000000
        0.000000000000000
        0.000000000000000
        0.000000000000000
        0.000000000000000
        0.000000000000000
        0.000000000000000
        0.000000000000000
        0.000000000000000
        0.000000000000000
        0.000000000000000
        0.000000000000000
        0.000000000000000
        0.000000000000000
        0.000000000000000
        0.000000000000000
        0.000000000000000
        0.000000000000000
        0.000000000000000
        0.000000000000000
        0.000000000000000
        0.000000000000000
        0.000000000000000
        0.000000000000000
        0.000000000000000
        0.000000000000000
        0.000000000000000
        0.000000000000000
        0.000000000000000
       -0.000305392487700
       -0.000104225957061
        0.000000000000000
        0.000000000000000
        0.000000000000000
        0.000000000000000
        0.000000000000000
        0.000000000000000
       -0.001107202788650
       -0.000924087565811
       -0.000013656683090
        0.000305372628358
        0.000000000000000
        0.000000000000000
        0.000000000000000
        0.000000000000000
       -0.001462702276087
       -0.002370874793543
       -0.001321248701535
        0.000627077988667
        0.001004977485808
        0.000453809980687
        0.000000000000000
        0.000000000000000
       -0.000715316840321
       -0.002040811357555
       -0.002681590973884
       -0.000760595332459
        0.001564671015001
        0.001568556886154
        0.000597687141091
        0.000000000000000
        0.000000000000000
       -0.000563690595853
       -0.001419569677662
       -0.001534754290746
        0.000206680124028
        0.001631744938214
        0.001183022018018
        0.000000000000000
        0.000000000000000
        0.000000000000000
        0.000000000000000
       -0.000497264530380
       -0.000398537476547
        0.000455725706602
        0.000829360154338
        0.000000000000000
        0.000000000000000
        0.000000000000000
        0.000000000000000
        0.000000000000000
        0.000000000000000
       -0.000004004442697
        0.000189913177529
        0.000000000000000
        0.000000000000000
        0.000000000000000
        0.000000000000000
        0.000000000000000
        0.000000000000000
        0.000000000000000
        0.000000000000000
        0.000000000000000
        0.000000000000000
        0.000000000000000
        0.000000000000000
        0.000000000000000
        0.000000000000000
        0.000000000000000
        0.000000000000000
        0.000000000000000
        0.000000000000000
        0.000000000000000
        0.000000000000000
        0.000000000000000
        0.000000000000000
        0.000000000000000
        0.000000000000000
        0.000000000000000
       -0.001470743028107
       -0.001444128323078
       -0.000399807237004
        0.000142714775806
        0.000000000000000
        0.000000000000000
        0.000000000000000
        0.000000000000000
       -0.002977710160761
       -0.005627158237277
       -0.004471452492218
        0.000069940281074
        0.001346218894340
        0.000647732691698
        0.000000000000000
        0.000000000000000
       -0.002124186316912
       -0.007178924616498
       -0.012282317711974
       -0.007601525787988
        0.004413924767267
        0.004709458473450
        0.001817274714658
        0.000000000000000
        0.000000000000000
       -0.002987329408657
       -0.009398213151361
       -0.015493054760673
       -0.003484529830612
        0.011093522317790
        0.007918121589325
        0.002661781285825
        0.000000000000000
        0.000000000000000
       -0.002122713796711
       -0.006029069021794
       -0.007927614531402
        0.003216016492287
        0.009784873670285
        0.006326042054563
        0.001946825329242
        0.000000000000000
        0.000000000000000
       -0.000793577504337
       -0.001937296438516
       -0.001379896255008
        0.003008523843398
        0.004782870776819
        0.002705130559491
        0.000000000000000
        0.000000000000000
        0.000000000000000
        0.000000000000000
       -0.000286758585401
        0.000100732459216
        0.001127384437665
        0.001298492417844
        0.000000000000000
        0.000000000000000
        0.000000000000000
        0.000000000000000
        0.000000000000000
        0.000000000000000
        0.000000000000000
        0.000000000000000
        0.000000000000000
        0.000000000000000
        0.000000000000000
        0.000000000000000
        0.000000000000000
        0.000000000000000
        0.000000000000000
        0.000000000000000
       -0.000593772471054
       -0.000302783940972
        0.000000000000000
        0.000000000000000
        0.000000000000000
        0.000000000000000
        0.000000000000000
       -0.002261621756734
       -0.004252971335324
       -0.003842525794317
       -0.001152705238029
        0.000291171530409
        0.000274246039687
        0.000000000000000
        0.000000000000000
       -0.002559594436554
       -0.009078306822895
       -0.017248604512022
       -0.014778324951338
       -0.000028687632507
        0.003216244938426
        0.001489599580436
        0.000000000000000
        0.000000000000000
       -0.005793556967422
       -0.021308129799072
       -0.045427058346016
       -0.033348217119888
        0.018607431810276
        0.013769547514579
        0.004372266713367
        0.000802484688491
       -0.001136816241863
       -0.007268910793277
       -0.028537862597929
       -0.064195887362609
       -0.009251722593655
        0.054479540268929
        0.026198684431726
        0.006866650589968
        0.001088243902029
       -0.000852041865420
       -0.004774249921952
       -0.016005692234159
       -0.026762452586079
        0.023692383186072
        0.041305154203200
        0.020229276780613
        0.005587287037401
        0.000000000000000
        0.000000000000000
       -0.001698153077113
       -0.004096645979296
       -0.002184495882739
        0.012485065184074
        0.016192873421487
        0.008774168155393
        0.002507422039966
        0.000000000000000
        0.000000000000000
       -0.000331032743521
       -0.000495709845755
        0.000766296927981
        0.003463031745862
        0.004060003703857
        0.002212796651441
        0.000000000000000
        0.000000000000000
        0.000000000000000
        0.000000000000000
        0.000000000000000
        0.000257024237721
        0.000550126921344
        0.000000000000000
        0.000000000000000
        0.000000000000000
        0.000000000000000
        0.000000000000000
        0.000000000000000
        0.000000000000000
       -0.000976404934005
       -0.001029299769280
       -0.000404711012194
        0.000000000000000
        0.000000000000000
        0.000000000000000
        0.000000000000000
       -0.001217367553253
       -0.003929621853545
       -0.006871513645447
       -0.005973088409746
       -0.001884000583019
        0.000247080884795
        0.000307159315123
        0.000000000000000
        0.000000000000000
       -0.004356237960897
       -0.015434511667244
       -0.032345328624526
       -0.027353159505131
       -0.002096766209732
        0.003931869553522
        0.001860254194771
        0.000000000000000
       -0.001347692889456
       -0.008938042384221
       -0.038213567076928
       -0.101999972833194
       -0.072570557045890
        0.026211220296983
        0.020184983220440
        0.005939087151577
        0.000998680981698
       -0.001765505291884
       -0.010240034711080
       -0.046850107806551
       -0.124264975386915
       -0.000030914076122
        0.124093941176801
        0.046770424554643
        0.010204809633199
        0.001757631120711
       -0.001020774217315
       -0.006066926188832
       -0.020757254431455
       -0.027663736859957
        0.072523528626784
        0.103266532896927
        0.038673955905013
        0.009015204335282
        0.001359536825158
        0.000000000000000
       -0.001948827960130
       -0.004239699113643
        0.001556958387923
        0.027341504575573
        0.032838305866521
        0.015698824955139
        0.004424170881442
        0.000000000000000
        0.000000000000000
       -0.000338924722890
       -0.000330517749152
        0.001777001684196
        0.005971317202855
        0.006970288291514
        0.004002820969538
        0.001244060378398
        0.000000000000000
        0.000000000000000
        0.000000000000000
        0.000000000000000
        0.000387303800976
        0.001029047361733
        0.000993065786828
        0.000000000000000
        0.000000000000000
        0.000000000000000
        0.000000000000000
        0.000000000000000
        0.000000000000000
       -0.000874908181958
       -0.000787110934232
        0.000000000000000
        0.000000000000000
        0.000000000000000
        0.000000000000000
        0.000000000000000
       -0.001126873266144
       -0.003530402215904
       -0.005968403257764
       -0.004910315458000
       -0.001535970107385
        0.000083350560654
        0.000000000000000
        0.000000000000000
        0.000000000000000
       -0.003847634970824
       -0.013508504714550
       -0.027514953479681
       -0.019648720469000
       -0.002276009057273
        0.002481561233667
        0.001210608195332
        0.000000000000000
       -0.001167507338835
       -0.007429156774823
       -0.031150115482337
       -0.082422442518611
       -0.042379215027795
        0.013399414197303
        0.013134204745250
        0.004301193723967
        0.000000000000000
       -0.001231650864907
       -0.007736057779776
       -0.030432958910454
       -0.065467822330542
        0.009204694174549
        0.074998212924981
        0.032660254693727
        0.008087640896891
        0.001269973904827
        0.000000000000000
       -0.004127302734003
       -0.012126648104293
       -0.009362489132825
        0.051972463109535
        0.090423704017239
        0.033297557280971
        0.007789546001535
        0.001208323756297
        0.000000000000000
       -0.001170433709008
       -0.002203604974873
        0.003307943170514
        0.021925778315793
        0.029685004674844
        0.014350506675290
        0.004037973969767
        0.000000000000000
        0.000000000000000
        0.000000000000000
       -0.000039686536773
        0.001724330217042
        0.005287083782867
        0.006346919469026
        0.003725312873254
        0.001178903681781
        0.000000000000000
        0.000000000000000
        0.000000000000000
        0.000000000000000
        0.000000000000000
        0.000830485586127
        0.000919926269247
        0.000000000000000
        0.000000000000000
        0.000000000000000
        0.000000000000000
        0.000000000000000
        0.000000000000000
        0.000000000000000
        0.000000000000000
        0.000000000000000
        0.000000000000000
        0.000000000000000
        0.000000000000000
        0.000000000000000
        0.000000000000000
       -0.001645296444776
       -0.002836708927220
       -0.002234036126871
       -0.000705522103426
        0.000000000000000
        0.000000000000000
        0.000000000000000
        0.000000000000000
       -0.001779135492837
       -0.005967365110224
       -0.010351792343439
       -0.007012608627865
       -0.000960362382666
        0.000877894196312
        0.000000000000000
        0.000000000000000
        0.000000000000000
       -0.003423074251226
       -0.011576081672052
       -0.021771834831018
       -0.010379671777213
        0.004131990693929
        0.004929687334497
        0.001771204906057
        0.000000000000000
        0.000000000000000
       -0.003317736512370
       -0.010275997629527
       -0.015295315475931
        0.003472874901054
        0.019648017338999
        0.011712572919335
        0.003622643790389
        0.000000000000000
        0.000000000000000
       -0.001605841828651
       -0.004102987181271
       -0.001658343629533
        0.014748979152443
        0.025242392275070
        0.012857293140266
        0.003710298835544
        0.000000000000000
        0.000000000000000
        0.000000000000000
       -0.000613294333869
        0.001797233583004
        0.008469905226413
        0.011644591975304
        0.006540311630087
        0.001916668152145
        0.000000000000000
        0.000000000000000
        0.000000000000000
        0.000000000000000
        0.000876716538009
        0.002549535125368
        0.003131742508743
        0.001785089487364
        0.000000000000000
        0.000000000000000
        0.000000000000000
        0.000000000000000
        0.000000000000000
        0.000000000000000
        0.000000000000000
        0.000000000000000
        0.000000000000000
        0.000000000000000
        0.000000000000000
        0.000000000000000
        0.000000000000000
        0.000000000000000
        0.000000000000000
        0.000000000000000
        0.000000000000000
        0.000000000000000
        0.000000000000000
        0.000000000000000
        0.000000000000000
        0.000000000000000
        0.000000000000000
       -0.000746511150475
       -0.000602494647620
        0.000000000000000
        0.000000000000000
        0.000000000000000
        0.000000000000000
        0.000000000000000
        0.000000000000000
       -0.001434790499797
       -0.002337438991458
       -0.001562377395808
       -0.000236389839921
        0.000000000000000
        0.000000000000000
        0.000000000000000
        0.000000000000000
       -0.000894215413812
       -0.002606542383997
       -0.003667352039036
       -0.001653963836166
        0.000892288658259
        0.001113125194077
        0.000000000000000
        0.000000000000000
        0.000000000000000
       -0.000840975435822
       -0.002219328245142
       -0.002412920987368
        0.000758824125567
        0.003521616693495
        0.002681344968180
        0.000953532552430
        0.000000000000000
        0.000000000000000
        0.000000000000000
       -0.000838606017419
       -0.000157766324739
        0.002765806690086
        0.004567136242330
        0.003011506917855
        0.000999339740780
        0.000000000000000
        0.000000000000000
        0.000000000000000
        0.000000000000000
        0.000513176298551
        0.002029494368101
        0.002745591954829
        0.001622431634811
        0.000000000000000
        0.000000000000000
        0.000000000000000
        0.000000000000000
        0.000000000000000
        0.000000000000000
        0.000717648057020
        0.000853881179205
        0.000000000000000
        0.000000000000000
        0.000000000000000
        0.000000000000000
        0.000000000000000
        0.000000000000000
        0.000000000000000
        0.000000000000000
        0.000000000000000
        0.000000000000000
        0.000000000000000
        0.000000000000000
        0.000000000000000
        0.000000000000000
        0.000000000000000
        0.000000000000000
        0.000000000000000
        0.000000000000000
        0.000000000000000
        0.000000000000000
        0.000000000000000
        0.000000000000000
        0.000000000000000
        0.000000000000000
        0.000000000000000
        0.000000000000000
        0.000000000000000
        0.000000000000000
        0.000000000000000
        0.000000000000000
        0.000000000000000
        0.000000000000000
        0.000000000000000
        0.000000000000000
        0.000000000000000
        0.000000000000000
        0.000000000000000
        0.000000000000000
        0.000000000000000
        0.000000000000000
        0.000000000000000
        0.000000000000000
       -0.000414477512352
       -0.000202647352372
        0.000000000000000
        0.000000000000000
        0.000000000000000
        0.000000000000000
        0.000000000000000
        0.000000000000000
        0.000000000000000
       -0.000275903676081
        0.000130787761105
        0.000451120978925
        0.000000000000000
        0.000000000000000
        0.000000000000000
        0.000000000000000
        0.000000000000000
        0.000000000000000
        0.000000000000000
        0.000378112149051
        0.000563729062377
        0.000000000000000
        0.000000000000000
        0.000000000000000
        0.000000000000000
        0.000000000000000
        0.000000000000000
        0.000000000000000
        0.000000000000000
        0.000000000000000
        0.000000000000000
        0.000000000000000
        0.000000000000000
        0.000000000000000
        0.000000000000000
        0.000000000000000
        0.000000000000000
        0.000000000000000
        0.000000000000000
        0.000000000000000
        0.000000000000000
        0.000000000000000
        0.000000000000000
        0.000000000000000
        0.000000000000000
        0.000000000000000
        0.000000000000000
        0.000000000000000
        0.000000000000000
        0.000000000000000
        0.000000000000000
END_DATAGRID_3D
END_BLOCK_DATAGRID_3D
