ATOMS
         C    7.558905    7.558905    7.558905
         H    8.755769    8.755769    8.755769
         H    6.362040    6.362040    8.755769
         H    8.755769    6.362040    6.362040
         H    6.362040    8.755769    6.362040
BEGIN_BLOCK_DATAGRID_3D
units: coords = b, function = 1/hbar/H*b^-2
BEGIN_DATAGRID_3D_function
      9      9      9
0.0 0.0 0.0
   15.117809    0.000000    0.000000
    0.000000   15.117809    0.000000
    0.000000    0.000000   15.117809
        0.000000000000000
        0.000000000000000
        0.000000000000000
        0.000000000000000
        0.000000000000000
        0.000000000000000
        0.000000000000000
        0.000000000000000
        0.000000000000000
        0.000000000000000
        0.000000000000000
        0.000000000000000
        0.000000000000000
        0.000000000000000
        0.000000000000000
        0.000000000000000
        0.000000000000000
        0.000000000000000
        0.000000000000000
        0.000000000000000
        0.000000000000000
        0.000000000000000
        0.000000000000000
        0.000000000000000
        0.000000000000000
        0.000000000000000
        0.000000000000000
        0.000000000000000
        0.000000000000000
        0.000000000000000
        0.000000000000000
       -0.000000000414264
        0.000000000009934
        0.000000000000000
        0.000000000000000
        0.000000000000000
        0.000000000000000
        0.000000000000000
        0.000000000000000
        0.000000000009182
       -0.000000001226430
        0.000000000009934
        0.000000000000000
        0.000000000000000
        0.000000000000000
        0.000000000000000
        0.000000000000000
        0.000000000000000
        0.000000000009182
       -0.000000000413575
        0.000000000000000
        0.000000000000000
        0.000000000000000
        0.000000000000000
        0.000000000000000
        0.000000000000000
        0.000000000000000
        0.000000000000000
        0.000000000000000
        0.000000000000000
        0.000000000000000
        0.000000000000000
        0.000000000000000
        0.000000000000000
        0.000000000000000
        0.000000000000000
        0.000000000000000
        0.000000000000000
        0.000000000000000
        0.000000000000000
        0.000000000000000
        0.000000000000000
        0.000000000000000
        0.000000000000000
        0.000000000000000
        0.000000000000000
        0.000000000000000
        0.000000000000000
        0.000000000000000
        0.000000000000000
        0.000000000000000
        0.000000000000000
        0.000000000000000
        0.000000000000000
        0.000000000000000
        0.000000000000000
        0.000000000000000
        0.000000000000000
        0.000000000000000
        0.000000000000000
        0.000000000000000
        0.000000000000000
        0.000000000000000
        0.000000000000000
       -0.000000000715510
        0.000000000661318
        0.000000000000000
        0.000000000000000
        0.000000000000000
        0.000000000000000
        0.000000000000000
        0.000000000000000
       -0.000000001375529
       -0.000000001013435
        0.000000000727246
        0.000000000816777
        0.000000000000000
        0.000000000000000
        0.000000000000000
        0.000000000000000
       -0.000000000898146
       -0.000000002184284
        0.000000000751957
       -0.000000000720605
        0.000000001146266
        0.000000000001123
        0.000000000000000
        0.000000000000000
        0.000000000001562
       -0.000000001590521
        0.000000000764896
       -0.000000000539934
        0.000000000774012
       -0.000000001583666
        0.000000000001123
        0.000000000000000
        0.000000000000000
        0.000000000001562
        0.000000001143512
       -0.000000000736728
        0.000000000728748
       -0.000000002181652
       -0.000000000898018
        0.000000000000000
        0.000000000000000
        0.000000000000000
        0.000000000000000
        0.000000000819055
        0.000000000723226
       -0.000000001016737
       -0.000000001373902
        0.000000000000000
        0.000000000000000
        0.000000000000000
        0.000000000000000
        0.000000000000000
        0.000000000000000
        0.000000000661332
       -0.000000000717765
        0.000000000000000
        0.000000000000000
        0.000000000000000
        0.000000000000000
        0.000000000000000
        0.000000000000000
        0.000000000000000
        0.000000000000000
        0.000000000000000
        0.000000000000000
        0.000000000000000
        0.000000000000000
        0.000000000000000
        0.000000000000000
        0.000000000000000
        0.000000000000000
        0.000000000000000
        0.000000000000000
        0.000000000000000
        0.000000000000000
        0.000000000000000
        0.000000000000000
        0.000000000000000
        0.000000000000000
        0.000000000000000
       -0.000000001976087
       -0.000000000113105
       -0.000000000068026
        0.000000001376160
        0.000000000000000
        0.000000000000000
        0.000000000000000
        0.000000000000000
       -0.000000002731882
        0.000000000633812
        0.000000006969419
       -0.000000008162847
       -0.000000003196869
        0.000000000503969
        0.000000000000000
        0.000000000000000
       -0.000000000441499
       -0.000000001245816
        0.000000023348880
       -0.000000013530278
       -0.000000045314658
       -0.000000004861605
        0.000000000410961
        0.000000000000000
        0.000000000000000
       -0.000000001047410
        0.000000007876347
       -0.000000016616127
       -0.000000044632746
       -0.000000016883417
        0.000000007963529
       -0.000000001048163
        0.000000000000000
        0.000000000000000
        0.000000000403038
       -0.000000004880365
       -0.000000045165019
       -0.000000013731081
        0.000000023423238
       -0.000000001209918
       -0.000000000445198
        0.000000000000000
        0.000000000000000
        0.000000000501974
       -0.000000003173212
       -0.000000008290117
        0.000000006925852
        0.000000000675218
       -0.000000002732434
        0.000000000000000
        0.000000000000000
        0.000000000000000
        0.000000000000000
        0.000000001376564
       -0.000000000075847
       -0.000000000114778
       -0.000000001977116
        0.000000000000000
        0.000000000000000
        0.000000000000000
        0.000000000000000
        0.000000000000000
        0.000000000000000
        0.000000000000000
        0.000000000000000
        0.000000000000000
        0.000000000000000
        0.000000000000000
        0.000000000000000
        0.000000000000000
        0.000000000000000
        0.000000000000000
        0.000000000000000
       -0.000000001068800
        0.000000000708247
        0.000000000000000
        0.000000000000000
        0.000000000000000
        0.000000000000000
        0.000000000000000
       -0.000000001361613
       -0.000000004196393
       -0.000000010166896
        0.000000006905921
        0.000000004679163
       -0.000000000232084
        0.000000000000000
        0.000000000000000
        0.000000000033284
       -0.000000005321879
        0.000000101553243
        0.000000176656888
       -0.000000140332426
       -0.000000104282009
        0.000000005803766
        0.000000000000000
        0.000000000000000
       -0.000000006556434
        0.000000092737580
        0.000000302879256
       -0.000000506631189
       -0.000000956413698
       -0.000000075450254
        0.000000004761747
       -0.000000000014073
       -0.000000000014500
       -0.000000010529023
        0.000000168301247
       -0.000000501664330
       -0.000001242874236
       -0.000000506683568
        0.000000169077626
       -0.000000010552377
       -0.000000000014073
       -0.000000000014500
        0.000000004709624
       -0.000000075164270
       -0.000000951546862
       -0.000000508336693
        0.000000303840078
        0.000000093219299
       -0.000000006591825
        0.000000000000000
        0.000000000000000
        0.000000005766523
       -0.000000103864212
       -0.000000141220787
        0.000000176744419
        0.000000101982722
       -0.000000005312184
        0.000000000029361
        0.000000000000000
        0.000000000000000
       -0.000000000232755
        0.000000004656551
        0.000000006911054
       -0.000000010183511
       -0.000000004204648
       -0.000000001363910
        0.000000000000000
        0.000000000000000
        0.000000000000000
        0.000000000000000
        0.000000000000000
        0.000000000710069
       -0.000000001064278
        0.000000000000000
        0.000000000000000
        0.000000000000000
        0.000000000000000
        0.000000000000000
        0.000000000000000
        0.000000000000000
       -0.000000000618241
       -0.000000000000646
        0.000000000614442
        0.000000000000000
        0.000000000000000
        0.000000000000000
        0.000000000000000
        0.000000000161628
       -0.000000002438847
       -0.000000018610401
       -0.000000000005119
        0.000000018656535
        0.000000002450090
       -0.000000000158480
        0.000000000000000
        0.000000000000000
       -0.000000003506992
        0.000000050813722
        0.000000415796114
       -0.000000000167025
       -0.000000416946541
       -0.000000051072968
        0.000000003537904
        0.000000000000000
       -0.000000000109886
       -0.000000016504167
        0.000000348898015
        0.000001256464689
        0.000000006428081
       -0.000001263732574
       -0.000000350501480
        0.000000016616324
        0.000000000112048
        0.000000000000000
        0.000000000000000
       -0.000000000000000
        0.000000000000000
       -0.000000000000000
       -0.000000000000000
        0.000000000000000
        0.000000000000000
        0.000000000000000
        0.000000000109886
        0.000000016504167
       -0.000000348898015
       -0.000001256464689
       -0.000000006428081
        0.000001263732574
        0.000000350501480
       -0.000000016616324
       -0.000000000112048
        0.000000000000000
        0.000000003506992
       -0.000000050813722
       -0.000000415796114
        0.000000000167025
        0.000000416946541
        0.000000051072968
       -0.000000003537904
        0.000000000000000
        0.000000000000000
       -0.000000000161628
        0.000000002438847
        0.000000018610401
        0.000000000005119
       -0.000000018656535
       -0.000000002450090
        0.000000000158480
        0.000000000000000
        0.000000000000000
        0.000000000000000
        0.000000000000000
        0.000000000618241
        0.000000000000646
       -0.000000000614442
        0.000000000000000
        0.000000000000000
        0.000000000000000
        0.000000000000000
        0.000000000000000
        0.000000000000000
       -0.000000000710069
        0.000000001064278
        0.000000000000000
        0.000000000000000
        0.000000000000000
        0.000000000000000
        0.000000000000000
        0.000000000232755
       -0.000000004656551
       -0.000000006911054
        0.000000010183511
        0.000000004204648
        0.000000001363910
        0.000000000000000
        0.000000000000000
        0.000000000000000
       -0.000000005766523
        0.000000103864212
        0.000000141220787
       -0.000000176744419
       -0.000000101982722
        0.000000005312184
       -0.000000000029361
        0.000000000000000
        0.000000000014500
       -0.000000004709624
        0.000000075164270
        0.000000951546862
        0.000000508336693
       -0.000000303840078
       -0.000000093219299
        0.000000006591825
        0.000000000000000
        0.000000000014500
        0.000000010529023
       -0.000000168301247
        0.000000501664330
        0.000001242874236
        0.000000506683568
       -0.000000169077626
        0.000000010552377
        0.000000000014073
        0.000000000000000
        0.000000006556434
       -0.000000092737580
       -0.000000302879256
        0.000000506631189
        0.000000956413698
        0.000000075450254
       -0.000000004761747
        0.000000000014073
        0.000000000000000
       -0.000000000033284
        0.000000005321879
       -0.000000101553243
       -0.000000176656888
        0.000000140332426
        0.000000104282009
       -0.000000005803766
        0.000000000000000
        0.000000000000000
        0.000000000000000
        0.000000001361613
        0.000000004196393
        0.000000010166896
       -0.000000006905921
       -0.000000004679163
        0.000000000232084
        0.000000000000000
        0.000000000000000
        0.000000000000000
        0.000000000000000
        0.000000000000000
        0.000000001068800
       -0.000000000708247
        0.000000000000000
        0.000000000000000
        0.000000000000000
        0.000000000000000
        0.000000000000000
        0.000000000000000
        0.000000000000000
        0.000000000000000
        0.000000000000000
        0.000000000000000
        0.000000000000000
        0.000000000000000
        0.000000000000000
        0.000000000000000
       -0.000000001376564
        0.000000000075847
        0.000000000114778
        0.000000001977116
        0.000000000000000
        0.000000000000000
        0.000000000000000
        0.000000000000000
       -0.000000000501974
        0.000000003173212
        0.000000008290117
       -0.000000006925852
       -0.000000000675218
        0.000000002732434
        0.000000000000000
        0.000000000000000
        0.000000000000000
       -0.000000000403038
        0.000000004880365
        0.000000045165019
        0.000000013731081
       -0.000000023423238
        0.000000001209918
        0.000000000445198
        0.000000000000000
        0.000000000000000
        0.000000001047410
       -0.000000007876347
        0.000000016616127
        0.000000044632746
        0.000000016883417
       -0.000000007963529
        0.000000001048163
        0.000000000000000
        0.000000000000000
        0.000000000441499
        0.000000001245816
       -0.000000023348880
        0.000000013530278
        0.000000045314658
        0.000000004861605
       -0.000000000410961
        0.000000000000000
        0.000000000000000
        0.000000000000000
        0.000000002731882
       -0.000000000633812
       -0.000000006969419
        0.000000008162847
        0.000000003196869
       -0.000000000503969
        0.000000000000000
        0.000000000000000
        0.000000000000000
        0.000000000000000
        0.000000001976087
        0.000000000113105
        0.000000000068026
       -0.000000001376160
        0.000000000000000
        0.000000000000000
        0.000000000000000
        0.000000000000000
        0.000000000000000
        0.000000000000000
        0.000000000000000
        0.000000000000000
        0.000000000000000
        0.000000000000000
        0.000000000000000
        0.000000000000000
        0.000000000000000
        0.000000000000000
        0.000000000000000
        0.000000000000000
        0.000000000000000
        0.000000000000000
        0.000000000000000
        0.000000000000000
        0.000000000000000
        0.000000000000000
        0.000000000000000
       -0.000000000661332
        0.000000000717765
        0.000000000000000
        0.000000000000000
        0.000000000000000
        0.000000000000000
        0.000000000000000
        0.000000000000000
       -0.000000000819055
       -0.000000000723226
        0.000000001016737
        0.000000001373902
        0.000000000000000
        0.000000000000000
        0.000000000000000
        0.000000000000000
       -0.000000000001562
       -0.000000001143512
        0.000000000736728
       -0.000000000728748
        0.000000002181652
        0.000000000898018
        0.000000000000000
        0.000000000000000
        0.000000000000000
       -0.000000000001562
        0.000000001590521
       -0.000000000764896
        0.000000000539934
       -0.000000000774012
        0.000000001583666
       -0.000000000001123
        0.000000000000000
        0.000000000000000
        0.000000000000000
        0.000000000898146
        0.000000002184284
       -0.000000000751957
        0.000000000720605
       -0.000000001146266
       -0.000000000001123
        0.000000000000000
        0.000000000000000
        0.000000000000000
        0.000000000000000
        0.000000001375529
        0.000000001013435
       -0.000000000727246
       -0.000000000816777
        0.000000000000000
        0.000000000000000
        0.000000000000000
        0.000000000000000
        0.000000000000000
        0.000000000000000
        0.000000000715510
       -0.000000000661318
        0.000000000000000
        0.000000000000000
        0.000000000000000
        0.000000000000000
        0.000000000000000
        0.000000000000000
        0.000000000000000
        0.000000000000000
        0.000000000000000
        0.000000000000000
        0.000000000000000
        0.000000000000000
        0.000000000000000
        0.000000000000000
        0.000000000000000
        0.000000000000000
        0.000000000000000
        0.000000000000000
        0.000000000000000
        0.000000000000000
        0.000000000000000
        0.000000000000000
        0.000000000000000
        0.000000000000000
        0.000000000000000
        0.000000000000000
        0.000000000000000
        0.000000000000000
        0.000000000000000
        0.000000000000000
        0.000000000000000
        0.000000000000000
        0.000000000000000
        0.000000000000000
        0.000000000000000
        0.000000000000000
        0.000000000000000
        0.000000000000000
        0.000000000000000
        0.000000000000000
        0.000000000000000
        0.000000000000000
       -0.000000000009182
        0.000000000413575
        0.000000000000000
        0.000000000000000
        0.000000000000000
        0.000000000000000
        0.000000000000000
        0.000000000000000
        0.000000000000000
       -0.000000000009182
        0.000000001226430
       -0.000000000009934
        0.000000000000000
        0.000000000000000
        0.000000000000000
        0.000000000000000
        0.000000000000000
        0.000000000000000
        0.000000000000000
        0.000000000414264
       -0.000000000009934
        0.000000000000000
        0.000000000000000
        0.000000000000000
        0.000000000000000
        0.000000000000000
        0.000000000000000
        0.000000000000000
        0.000000000000000
        0.000000000000000
        0.000000000000000
        0.000000000000000
        0.000000000000000
        0.000000000000000
        0.000000000000000
        0.000000000000000
        0.000000000000000
        0.000000000000000
        0.000000000000000
        0.000000000000000
        0.000000000000000
        0.000000000000000
        0.000000000000000
        0.000000000000000
        0.000000000000000
        0.000000000000000
        0.000000000000000
        0.000000000000000
        0.000000000000000
        0.000000000000000
        0.000000000000000
END_DATAGRID_3D
END_BLOCK_DATAGRID_3D
