ATOMS
         C    7.558905    7.558905    7.558905
         H    8.755769    8.755769    8.755769
         H    6.362040    6.362040    8.755769
         H    8.755769    6.362040    6.362040
         H    6.362040    8.755769    6.362040
BEGIN_BLOCK_DATAGRID_3D
units: coords = b, function = sqrt(b^-3)
BEGIN_DATAGRID_3D_function
      9      9      9
0.0 0.0 0.0
   15.117809    0.000000    0.000000
    0.000000   15.117809    0.000000
    0.000000    0.000000   15.117809
        0.000000000000000
        0.000000000000000
        0.000000000000000
        0.000000000000000
        0.000000000000000
        0.000000000000000
        0.000000000000000
        0.000000000000000
        0.000000000000000
        0.000000000000000
        0.000000000000000
        0.000000000000000
        0.000000000000000
        0.000000000000000
        0.000000000000000
        0.000000000000000
        0.000000000000000
        0.000000000000000
        0.000000000000000
        0.000000000000000
        0.000000000000000
        0.000000000000000
        0.000000000000000
        0.000000000000000
        0.000000000000000
        0.000000000000000
        0.000000000000000
        0.000000000000000
        0.000000000000000
        0.000000000000000
        0.000000000000000
        0.000291315180963
        0.000204962279698
        0.000000000000000
        0.000000000000000
        0.000000000000000
        0.000000000000000
        0.000000000000000
        0.000000000000000
        0.000460693962871
        0.000582461320916
        0.000319292082152
        0.000000000000000
        0.000000000000000
        0.000000000000000
        0.000000000000000
        0.000000000000000
        0.000000000000000
        0.000458814792567
        0.000490100098921
        0.000000000000000
        0.000000000000000
        0.000000000000000
        0.000000000000000
        0.000000000000000
        0.000000000000000
        0.000000000000000
        0.000000000000000
        0.000000000000000
        0.000000000000000
        0.000000000000000
        0.000000000000000
        0.000000000000000
        0.000000000000000
        0.000000000000000
        0.000000000000000
        0.000000000000000
        0.000000000000000
        0.000000000000000
        0.000000000000000
        0.000000000000000
        0.000000000000000
        0.000000000000000
        0.000000000000000
        0.000000000000000
        0.000000000000000
        0.000000000000000
        0.000000000000000
        0.000000000000000
        0.000000000000000
        0.000000000000000
        0.000000000000000
        0.000000000000000
        0.000000000000000
        0.000000000000000
        0.000000000000000
        0.000000000000000
        0.000000000000000
        0.000000000000000
        0.000000000000000
        0.000000000000000
        0.000000000000000
        0.000000000000000
        0.000000000000000
        0.000009169207486
       -0.000017041721234
        0.000000000000000
        0.000000000000000
        0.000000000000000
        0.000000000000000
        0.000000000000000
        0.000000000000000
        0.000330141977423
        0.000363922035262
        0.000159198240006
        0.000018097126159
        0.000000000000000
        0.000000000000000
        0.000000000000000
        0.000000000000000
        0.000679074775232
        0.001443718551114
        0.001658330475211
        0.000927411969380
        0.000253830537776
        0.000034108104170
        0.000000000000000
        0.000000000000000
        0.000410898761178
        0.001464088238466
        0.003005780763638
        0.003380156693928
        0.001936071977171
        0.000598952361636
        0.000092740822378
        0.000000000000000
        0.000000000000000
        0.000434614325581
        0.001549904926384
        0.003078807519721
        0.003294949619816
        0.001835022825166
        0.000549214509570
        0.000000000000000
        0.000000000000000
        0.000000000000000
        0.000000000000000
        0.000814903137585
        0.001656271070443
        0.001717616005893
        0.000906936652786
        0.000000000000000
        0.000000000000000
        0.000000000000000
        0.000000000000000
        0.000000000000000
        0.000000000000000
        0.000493297486233
        0.000504492163766
        0.000000000000000
        0.000000000000000
        0.000000000000000
        0.000000000000000
        0.000000000000000
        0.000000000000000
        0.000000000000000
        0.000000000000000
        0.000000000000000
        0.000000000000000
        0.000000000000000
        0.000000000000000
        0.000000000000000
        0.000000000000000
        0.000000000000000
        0.000000000000000
        0.000000000000000
        0.000000000000000
        0.000000000000000
        0.000000000000000
        0.000000000000000
        0.000000000000000
        0.000000000000000
        0.000000000000000
        0.000000000000000
       -0.000101892741124
       -0.000260532185274
       -0.000309461386668
       -0.000181353447103
        0.000000000000000
        0.000000000000000
        0.000000000000000
        0.000000000000000
        0.000332108798528
        0.000538194586978
        0.000201077128860
       -0.000393941015714
       -0.000366655029291
       -0.000136548895589
        0.000000000000000
        0.000000000000000
        0.000540280955568
        0.002070066583754
        0.004489102780544
        0.004906531941980
        0.001547369560296
        0.000025834603728
       -0.000111057249130
        0.000000000000000
        0.000000000000000
        0.001260465306928
        0.005082838416008
        0.012771443783341
        0.015478910873554
        0.006646554512311
        0.001336662294921
        0.000110315284587
        0.000000000000000
        0.000000000000000
        0.001393783341055
        0.005672026079563
        0.013905135469315
        0.014575870246953
        0.006575626882890
        0.001646063118852
        0.000209065303265
        0.000000000000000
        0.000000000000000
        0.000747379420009
        0.002909873153010
        0.006142661964456
        0.006297934794473
        0.003215133026406
        0.000864291926045
        0.000000000000000
        0.000000000000000
        0.000000000000000
        0.000000000000000
        0.000799594660080
        0.001619577182999
        0.001667717144663
        0.000871724439007
        0.000000000000000
        0.000000000000000
        0.000000000000000
        0.000000000000000
        0.000000000000000
        0.000000000000000
        0.000000000000000
        0.000000000000000
        0.000000000000000
        0.000000000000000
        0.000000000000000
        0.000000000000000
        0.000000000000000
        0.000000000000000
        0.000000000000000
        0.000000000000000
       -0.000252185067143
       -0.000227180174809
        0.000000000000000
        0.000000000000000
        0.000000000000000
        0.000000000000000
        0.000000000000000
       -0.000260115114787
       -0.000792362260597
       -0.001369376662211
       -0.001232621201705
       -0.000621582889918
       -0.000188400823597
        0.000000000000000
        0.000000000000000
        0.000033995444725
       -0.000162285697545
       -0.001411484979422
       -0.003712017627898
       -0.003844374271615
       -0.001805477185748
       -0.000517093645564
        0.000000000000000
        0.000000000000000
        0.000732311890791
        0.002624769702914
        0.005122088002229
        0.001868564700794
       -0.005013312733315
       -0.002622300764804
       -0.000747606313348
       -0.000130945808385
        0.000284402238528
        0.002029611473483
        0.010011926058366
        0.032793975786129
        0.041066798693267
        0.009824571091091
       -0.000044582735967
       -0.000423119784910
       -0.000105523284375
        0.000317125948039
        0.002368766804054
        0.012136526794420
        0.040635736594805
        0.040980757495773
        0.013062600629819
        0.001967244114983
        0.000082552848713
        0.000000000000000
        0.000000000000000
        0.001363246928295
        0.005531522574510
        0.013483034031474
        0.013887318549646
        0.006094545080985
        0.001460322151975
        0.000166096367631
        0.000000000000000
        0.000000000000000
        0.000417880805366
        0.001482731569956
        0.002909688612978
        0.003053045842951
        0.001652713637806
        0.000471101998811
        0.000000000000000
        0.000000000000000
        0.000000000000000
        0.000000000000000
        0.000000000000000
        0.000424962233154
        0.000446703035434
        0.000000000000000
        0.000000000000000
        0.000000000000000
        0.000000000000000
        0.000000000000000
        0.000000000000000
        0.000000000000000
       -0.000327527326572
       -0.000496225799473
       -0.000338223561537
        0.000000000000000
        0.000000000000000
        0.000000000000000
        0.000000000000000
       -0.000172848718604
       -0.000755934900416
       -0.001972235672820
       -0.002879429118180
       -0.002249540875673
       -0.001021754335358
       -0.000267226661764
        0.000000000000000
        0.000000000000000
       -0.000331109787285
       -0.002011694530922
       -0.007252186102527
       -0.013184870935449
       -0.009361396758223
       -0.003552400272673
       -0.000882904284794
        0.000000000000000
        0.000041601360728
        0.000089931421205
       -0.001362324761782
       -0.012138791371036
       -0.034973755401013
       -0.024470422814345
       -0.007419900835802
       -0.001572849526770
       -0.000217421246963
        0.000236844968514
        0.001387007220799
        0.006424394456403
        0.017222238110328
        0.000038282625310
       -0.017544751100108
       -0.006681355837531
       -0.001474977237206
       -0.000256334791556
        0.000276128802796
        0.001943186665902
        0.009446202339495
        0.030107958740549
        0.034992245910385
        0.006163202864530
       -0.000990911049358
       -0.000587895774870
       -0.000126509882175
        0.000000000000000
        0.001185772228639
        0.004707788265137
        0.011518291307677
        0.013189011240189
        0.005014136447069
        0.000746337545198
       -0.000024782817948
        0.000000000000000
        0.000000000000000
        0.000383823787987
        0.001339737047355
        0.002678100900762
        0.002880072400009
        0.001530232667197
        0.000414271353564
        0.000043195108647
        0.000000000000000
        0.000000000000000
        0.000000000000000
        0.000000000000000
        0.000409192217696
        0.000496282172075
        0.000255059702643
        0.000000000000000
        0.000000000000000
        0.000000000000000
        0.000000000000000
        0.000000000000000
        0.000000000000000
       -0.000339321570267
       -0.000413490550869
        0.000000000000000
        0.000000000000000
        0.000000000000000
        0.000000000000000
        0.000000000000000
       -0.000220245090551
       -0.000931022815086
       -0.002188968123797
       -0.002850158087572
       -0.002009632085213
       -0.000799208275470
        0.000000000000000
        0.000000000000000
        0.000000000000000
       -0.000611531030368
       -0.003119010483160
       -0.009368165355611
       -0.012882815936011
       -0.008062402452402
       -0.003069221846568
       -0.000703055598106
        0.000000000000000
       -0.000046216544423
       -0.000715369920961
       -0.005671982257662
       -0.025505777271814
       -0.038359003950008
       -0.020797380643571
       -0.006736016164254
       -0.001510824333281
        0.000000000000000
        0.000033327924996
        0.000003506613624
       -0.001928048480654
       -0.014824808416616
       -0.041048308183893
       -0.028131791040906
       -0.008366229149194
       -0.001737625516731
       -0.000238407844763
        0.000000000000000
        0.000612444624457
        0.001957330414810
        0.002470837794929
       -0.004469882818764
       -0.010404116965142
       -0.004103181818755
       -0.001009771395325
       -0.000162330839912
        0.000000000000000
        0.000471669531955
        0.001708344116262
        0.003343299606282
        0.002713146679139
       -0.000349779057854
       -0.000705605586628
       -0.000281302065231
        0.000000000000000
        0.000000000000000
        0.000000000000000
        0.000575590032957
        0.001142748163860
        0.001167443042622
        0.000497997213312
        0.000047442420349
       -0.000021469216253
        0.000000000000000
        0.000000000000000
        0.000000000000000
        0.000000000000000
        0.000000000000000
        0.000219085923276
        0.000139933000862
        0.000000000000000
        0.000000000000000
        0.000000000000000
        0.000000000000000
        0.000000000000000
        0.000000000000000
        0.000000000000000
        0.000000000000000
        0.000000000000000
        0.000000000000000
        0.000000000000000
        0.000000000000000
        0.000000000000000
        0.000000000000000
       -0.000534759675948
       -0.001240550302408
       -0.001512689413876
       -0.000955481471924
        0.000000000000000
        0.000000000000000
        0.000000000000000
        0.000000000000000
       -0.000398615801554
       -0.001826710524217
       -0.004517334868296
       -0.005736836210884
       -0.003755607158014
       -0.001376286899444
        0.000000000000000
        0.000000000000000
        0.000000000000000
       -0.000642067443128
       -0.003259513988213
       -0.009790266793452
       -0.013571367633318
       -0.008543484254308
       -0.003254962813446
       -0.000746024533740
        0.000000000000000
        0.000000000000000
       -0.000405802865575
       -0.002386744681793
       -0.008505338578191
       -0.015474770568814
       -0.010993814823465
       -0.004142725022395
       -0.001018002387329
        0.000000000000000
        0.000000000000000
       -0.000034615978888
       -0.000524008165037
       -0.002557288153683
       -0.005905402890739
       -0.005741522889765
       -0.002536917376104
       -0.000687338461666
        0.000000000000000
        0.000000000000000
        0.000000000000000
        0.000160164091236
       -0.000007435107241
       -0.000760232615231
       -0.001262890306163
       -0.000760731290740
       -0.000233810731618
        0.000000000000000
        0.000000000000000
        0.000000000000000
        0.000000000000000
        0.000184299249304
        0.000105899740627
       -0.000076945655634
       -0.000094139856094
        0.000000000000000
        0.000000000000000
        0.000000000000000
        0.000000000000000
        0.000000000000000
        0.000000000000000
        0.000000000000000
        0.000000000000000
        0.000000000000000
        0.000000000000000
        0.000000000000000
        0.000000000000000
        0.000000000000000
        0.000000000000000
        0.000000000000000
        0.000000000000000
        0.000000000000000
        0.000000000000000
        0.000000000000000
        0.000000000000000
        0.000000000000000
        0.000000000000000
        0.000000000000000
       -0.000389275879368
       -0.000446714622057
        0.000000000000000
        0.000000000000000
        0.000000000000000
        0.000000000000000
        0.000000000000000
        0.000000000000000
       -0.000550068153452
       -0.001277244189851
       -0.001562588275106
       -0.000990693685703
        0.000000000000000
        0.000000000000000
        0.000000000000000
        0.000000000000000
       -0.000236978610767
       -0.000998196171515
       -0.002358087030539
       -0.003092061864436
       -0.002191941272573
       -0.000877320786229
        0.000000000000000
        0.000000000000000
        0.000000000000000
       -0.000199923691796
       -0.000880286091527
       -0.002299915535696
       -0.003379513412098
       -0.002655380185647
       -0.001206435343430
       -0.000316772375495
        0.000000000000000
        0.000000000000000
        0.000000000000000
       -0.000363599857062
       -0.001093332647852
       -0.001860264094799
       -0.001662035957773
       -0.000827971007346
       -0.000243978144019
        0.000000000000000
        0.000000000000000
        0.000000000000000
        0.000000000000000
       -0.000247735469242
       -0.000518554479910
       -0.000545605282308
       -0.000293590429356
        0.000000000000000
        0.000000000000000
        0.000000000000000
        0.000000000000000
        0.000000000000000
        0.000000000000000
       -0.000066858177392
       -0.000088941360846
        0.000000000000000
        0.000000000000000
        0.000000000000000
        0.000000000000000
        0.000000000000000
        0.000000000000000
        0.000000000000000
        0.000000000000000
        0.000000000000000
        0.000000000000000
        0.000000000000000
        0.000000000000000
        0.000000000000000
        0.000000000000000
        0.000000000000000
        0.000000000000000
        0.000000000000000
        0.000000000000000
        0.000000000000000
        0.000000000000000
        0.000000000000000
        0.000000000000000
        0.000000000000000
        0.000000000000000
        0.000000000000000
        0.000000000000000
        0.000000000000000
        0.000000000000000
        0.000000000000000
        0.000000000000000
        0.000000000000000
        0.000000000000000
        0.000000000000000
        0.000000000000000
        0.000000000000000
        0.000000000000000
        0.000000000000000
        0.000000000000000
        0.000000000000000
        0.000000000000000
        0.000000000000000
        0.000000000000000
       -0.000373174129680
       -0.000456887614355
        0.000000000000000
        0.000000000000000
        0.000000000000000
        0.000000000000000
        0.000000000000000
        0.000000000000000
        0.000000000000000
       -0.000379029071748
       -0.000582404948315
       -0.000402455941046
        0.000000000000000
        0.000000000000000
        0.000000000000000
        0.000000000000000
        0.000000000000000
        0.000000000000000
        0.000000000000000
       -0.000324414324829
       -0.000292209453644
        0.000000000000000
        0.000000000000000
        0.000000000000000
        0.000000000000000
        0.000000000000000
        0.000000000000000
        0.000000000000000
        0.000000000000000
        0.000000000000000
        0.000000000000000
        0.000000000000000
        0.000000000000000
        0.000000000000000
        0.000000000000000
        0.000000000000000
        0.000000000000000
        0.000000000000000
        0.000000000000000
        0.000000000000000
        0.000000000000000
        0.000000000000000
        0.000000000000000
        0.000000000000000
        0.000000000000000
        0.000000000000000
        0.000000000000000
        0.000000000000000
        0.000000000000000
        0.000000000000000
        0.000000000000000
END_DATAGRID_3D
END_BLOCK_DATAGRID_3D
