ATOMS
         C    7.558905    7.558905    7.558905
         H    8.755769    8.755769    8.755769
         H    6.362040    6.362040    8.755769
         H    8.755769    6.362040    6.362040
         H    6.362040    8.755769    6.362040
BEGIN_BLOCK_DATAGRID_3D
units: coords = b, function = sqrt(b^-3)
BEGIN_DATAGRID_3D_function
      9      9      9
0.0 0.0 0.0
   15.117809    0.000000    0.000000
    0.000000   15.117809    0.000000
    0.000000    0.000000   15.117809
        0.000000000000000
        0.000000000000000
        0.000000000000000
        0.000000000000000
        0.000000000000000
        0.000000000000000
        0.000000000000000
        0.000000000000000
        0.000000000000000
        0.000000000000000
        0.000000000000000
        0.000000000000000
        0.000000000000000
        0.000000000000000
        0.000000000000000
        0.000000000000000
        0.000000000000000
        0.000000000000000
        0.000000000000000
        0.000000000000000
        0.000000000000000
        0.000000000000000
        0.000000000000000
        0.000000000000000
        0.000000000000000
        0.000000000000000
        0.000000000000000
        0.000000000000000
        0.000000000000000
        0.000000000000000
        0.000000000000000
       -0.001158154955522
       -0.001119693277630
        0.000000000000000
        0.000000000000000
        0.000000000000000
        0.000000000000000
        0.000000000000000
        0.000000000000000
       -0.000693884935087
       -0.001350892028541
       -0.001118148063718
        0.000000000000000
        0.000000000000000
        0.000000000000000
        0.000000000000000
        0.000000000000000
        0.000000000000000
       -0.000425069240046
       -0.000654159682794
        0.000000000000000
        0.000000000000000
        0.000000000000000
        0.000000000000000
        0.000000000000000
        0.000000000000000
        0.000000000000000
        0.000000000000000
        0.000000000000000
        0.000000000000000
        0.000000000000000
        0.000000000000000
        0.000000000000000
        0.000000000000000
        0.000000000000000
        0.000000000000000
        0.000000000000000
        0.000000000000000
        0.000000000000000
        0.000000000000000
        0.000000000000000
        0.000000000000000
        0.000000000000000
        0.000000000000000
        0.000000000000000
        0.000000000000000
        0.000000000000000
        0.000000000000000
        0.000000000000000
        0.000000000000000
        0.000000000000000
        0.000000000000000
        0.000000000000000
        0.000000000000000
        0.000000000000000
        0.000000000000000
        0.000000000000000
        0.000000000000000
        0.000000000000000
        0.000000000000000
        0.000000000000000
        0.000000000000000
        0.000000000000000
        0.000000000000000
       -0.001213316225626
       -0.001217960489165
        0.000000000000000
        0.000000000000000
        0.000000000000000
        0.000000000000000
        0.000000000000000
        0.000000000000000
       -0.002072310761541
       -0.004100429261989
       -0.004093524421053
       -0.002067837337378
        0.000000000000000
        0.000000000000000
        0.000000000000000
        0.000000000000000
       -0.001111631467904
       -0.004085071855949
       -0.007789316376015
       -0.007591493831375
       -0.003944784051983
       -0.001136044797205
        0.000000000000000
        0.000000000000000
       -0.000105863537617
       -0.001081386365427
       -0.004110146932186
       -0.007839017133166
       -0.007372634400256
       -0.003738913524372
       -0.001082016216146
        0.000000000000000
        0.000000000000000
        0.000024113171563
       -0.000291726740040
       -0.001743081449528
       -0.003697517213052
       -0.003510640829897
       -0.001742564885986
        0.000000000000000
        0.000000000000000
        0.000000000000000
        0.000000000000000
        0.000103237290382
       -0.000147099462185
       -0.000726345277120
       -0.000784669590235
        0.000000000000000
        0.000000000000000
        0.000000000000000
        0.000000000000000
        0.000000000000000
        0.000000000000000
        0.000103134735690
        0.000022280956427
        0.000000000000000
        0.000000000000000
        0.000000000000000
        0.000000000000000
        0.000000000000000
        0.000000000000000
        0.000000000000000
        0.000000000000000
        0.000000000000000
        0.000000000000000
        0.000000000000000
        0.000000000000000
        0.000000000000000
        0.000000000000000
        0.000000000000000
        0.000000000000000
        0.000000000000000
        0.000000000000000
        0.000000000000000
        0.000000000000000
        0.000000000000000
        0.000000000000000
        0.000000000000000
        0.000000000000000
        0.000000000000000
       -0.002007180540928
       -0.004007312898617
       -0.004024430889084
       -0.002038751901942
        0.000000000000000
        0.000000000000000
        0.000000000000000
        0.000000000000000
       -0.001780622530378
       -0.007270460871914
       -0.015075820477751
       -0.015311631721003
       -0.007459718514094
       -0.001964876788506
        0.000000000000000
        0.000000000000000
       -0.000241497508396
       -0.003074713728356
       -0.014377428692059
       -0.034592675946517
       -0.034749630951706
       -0.014641850686424
       -0.003702022751206
        0.000000000000000
        0.000000000000000
        0.000164537814953
       -0.001748155785219
       -0.013232849745420
       -0.035893315063555
       -0.031919493906440
       -0.013294986012475
       -0.003414064285195
        0.000000000000000
        0.000000000000000
        0.000634576350084
        0.001192271412989
       -0.001334234539894
       -0.010578878412534
       -0.011233302798298
       -0.005559882484334
       -0.001516458588138
        0.000000000000000
        0.000000000000000
        0.000493905581390
        0.001426810760212
        0.001848623330448
        0.000008084125313
       -0.001376119592796
       -0.000971461293098
        0.000000000000000
        0.000000000000000
        0.000000000000000
        0.000000000000000
        0.000564982187382
        0.000947382000996
        0.000745014884180
        0.000242446688140
        0.000000000000000
        0.000000000000000
        0.000000000000000
        0.000000000000000
        0.000000000000000
        0.000000000000000
        0.000000000000000
        0.000000000000000
        0.000000000000000
        0.000000000000000
        0.000000000000000
        0.000000000000000
        0.000000000000000
        0.000000000000000
        0.000000000000000
        0.000000000000000
       -0.001077173340475
       -0.001055948988851
        0.000000000000000
        0.000000000000000
        0.000000000000000
        0.000000000000000
        0.000000000000000
       -0.000968392510928
       -0.003747836703485
       -0.007337864191531
       -0.007273029440262
       -0.003817153017474
       -0.001103962155997
        0.000000000000000
        0.000000000000000
       -0.000163377109374
       -0.002734167222540
       -0.013487632855870
       -0.033307605126410
       -0.033954618126478
       -0.014374836526357
       -0.003643477307516
        0.000000000000000
        0.000000000000000
        0.000416788731130
       -0.002506650522467
       -0.027127910258297
       -0.097637504451155
       -0.103214508060858
       -0.031984896653470
       -0.006475162952853
       -0.000896060289377
        0.000390201024486
        0.001927424510929
        0.003937047795228
       -0.014099053978553
       -0.095210423318033
       -0.085157806734214
       -0.027465562967864
       -0.005800815753422
       -0.000835380615568
        0.000429135699238
        0.002524237554277
        0.009306451751069
        0.019698286550561
       -0.001685103019378
       -0.014840628528509
       -0.008159652341169
       -0.002343429789833
        0.000000000000000
        0.000000000000000
        0.001566546147953
        0.005430925360117
        0.011254029507709
        0.009725879121317
        0.002795406064363
       -0.000204287352662
       -0.000291010886503
        0.000000000000000
        0.000000000000000
        0.000534827743932
        0.001734872717852
        0.003301047473272
        0.003435922986539
        0.001805025173289
        0.000510235266338
        0.000000000000000
        0.000000000000000
        0.000000000000000
        0.000000000000000
        0.000000000000000
        0.000584108271373
        0.000626480129905
        0.000000000000000
        0.000000000000000
        0.000000000000000
        0.000000000000000
        0.000000000000000
        0.000000000000000
        0.000000000000000
       -0.000575067626340
       -0.001190045810252
       -0.001021158625229
        0.000000000000000
        0.000000000000000
        0.000000000000000
        0.000000000000000
       -0.000015784342127
       -0.000742707363753
       -0.003359374451605
       -0.006905654061712
       -0.006755535123923
       -0.003502622569848
       -0.001030103941506
        0.000000000000000
        0.000000000000000
        0.000410157983554
       -0.000665945501483
       -0.010213521708678
       -0.031619315851635
       -0.029558893492567
       -0.012582141509385
       -0.003270854590518
        0.000000000000000
        0.000428056315638
        0.002226944640732
        0.005671344345974
       -0.007326698867702
       -0.083872296258316
       -0.080097937418925
       -0.026389964767874
       -0.005635105457450
       -0.000819378830228
        0.000799928341621
        0.004635951504335
        0.021186256730532
        0.056184582850171
        0.000017093883910
       -0.056008694385457
       -0.021105082325029
       -0.004599353765305
       -0.000791480860359
        0.000644919639616
        0.004566203774945
        0.020999612112878
        0.065956279950890
        0.083921229680349
        0.021663361860216
       -0.000166455589314
       -0.001104894563642
       -0.000242700806543
        0.000000000000000
        0.002444168579689
        0.009566275784731
        0.024136059422644
        0.031632465760211
        0.015686010320155
        0.003727230161713
        0.000438270990982
        0.000000000000000
        0.000000000000000
        0.000720308030990
        0.002670250528292
        0.005663310959471
        0.006907595939238
        0.004460413517018
        0.001585916123479
        0.000330906112512
        0.000000000000000
        0.000000000000000
        0.000000000000000
        0.000000000000000
        0.000841416904714
        0.001190318583418
        0.000755605555689
        0.000000000000000
        0.000000000000000
        0.000000000000000
        0.000000000000000
        0.000000000000000
        0.000000000000000
       -0.000304762218036
       -0.000519335482371
        0.000000000000000
        0.000000000000000
        0.000000000000000
        0.000000000000000
        0.000000000000000
        0.000125159835628
        0.000086769333873
       -0.000948614406155
       -0.002781229361305
       -0.002943798272289
       -0.001545914272288
        0.000000000000000
        0.000000000000000
        0.000000000000000
        0.000944078508225
        0.002533188392058
        0.002175443522889
       -0.006484387018298
       -0.009074851710981
       -0.004872422149989
       -0.001384904496626
        0.000000000000000
        0.000485773103562
        0.003000643465408
        0.012020889054977
        0.029670869742175
        0.010146964776380
       -0.009845751506733
       -0.006890836012123
       -0.002113640877707
        0.000000000000000
        0.000682774930768
        0.004865723904748
        0.022733908663624
        0.072728635061742
        0.095259356740066
        0.026723231175504
        0.000909142610676
       -0.000939184267670
       -0.000226699021203
        0.000000000000000
        0.004074392208327
        0.017631005670156
        0.051904227795574
        0.089244437949029
        0.054007104687386
        0.010748808471761
        0.000993828704939
       -0.000009553269819
        0.000000000000000
        0.001851890819915
        0.007838408405291
        0.019792502216724
        0.030084187908745
        0.020570817195529
        0.006450715488711
        0.001152056379146
        0.000000000000000
        0.000000000000000
        0.000000000000000
        0.002009528163840
        0.004891550955104
        0.006686195403602
        0.004929046086366
        0.002005705256214
        0.000448971002641
        0.000000000000000
        0.000000000000000
        0.000000000000000
        0.000000000000000
        0.000000000000000
        0.000970329736259
        0.000777386000161
        0.000000000000000
        0.000000000000000
        0.000000000000000
        0.000000000000000
        0.000000000000000
        0.000000000000000
        0.000000000000000
        0.000000000000000
        0.000000000000000
        0.000000000000000
        0.000000000000000
        0.000000000000000
        0.000000000000000
        0.000000000000000
        0.000309074934741
        0.000289803444019
       -0.000244686393648
       -0.000509977372379
        0.000000000000000
        0.000000000000000
        0.000000000000000
        0.000000000000000
        0.000670732902484
        0.002149404917123
        0.003456293949508
        0.001802589449668
       -0.000348353813062
       -0.000644693308328
        0.000000000000000
        0.000000000000000
        0.000000000000000
        0.001876048306094
        0.006771842339185
        0.014763707570493
        0.013820370515553
        0.004953857151680
        0.000483172981683
       -0.000159456794990
        0.000000000000000
        0.000000000000000
        0.002689788748290
        0.010648486068467
        0.027155387459385
        0.035906464972130
        0.018046610734028
        0.004440074664803
        0.000581480685659
        0.000000000000000
        0.000000000000000
        0.001930011218938
        0.008178954911107
        0.020682298052912
        0.031369258728852
        0.021365830020757
        0.006717729648777
        0.001210601822835
        0.000000000000000
        0.000000000000000
        0.000000000000000
        0.003405202030742
        0.009002885915336
        0.013271422692579
        0.010024993076168
        0.003902564807556
        0.000808983940048
        0.000000000000000
        0.000000000000000
        0.000000000000000
        0.000000000000000
        0.002275862622486
        0.003508364636490
        0.002791551250799
        0.001169189873306
        0.000000000000000
        0.000000000000000
        0.000000000000000
        0.000000000000000
        0.000000000000000
        0.000000000000000
        0.000000000000000
        0.000000000000000
        0.000000000000000
        0.000000000000000
        0.000000000000000
        0.000000000000000
        0.000000000000000
        0.000000000000000
        0.000000000000000
        0.000000000000000
        0.000000000000000
        0.000000000000000
        0.000000000000000
        0.000000000000000
        0.000000000000000
        0.000000000000000
        0.000000000000000
        0.000236167538225
        0.000164204439549
        0.000000000000000
        0.000000000000000
        0.000000000000000
        0.000000000000000
        0.000000000000000
        0.000000000000000
        0.000770819831742
        0.001384284907199
        0.001226673767652
        0.000517138905996
        0.000000000000000
        0.000000000000000
        0.000000000000000
        0.000000000000000
        0.000635874407997
        0.002113368791765
        0.004095514516645
        0.004352210838286
        0.002371867730897
        0.000706885880035
        0.000000000000000
        0.000000000000000
        0.000000000000000
        0.000810387226481
        0.003008929529965
        0.006414083440052
        0.007840959010692
        0.005077512793351
        0.001822207078003
        0.000382818387152
        0.000000000000000
        0.000000000000000
        0.000000000000000
        0.002152767120816
        0.005228786107568
        0.007137647588086
        0.005247510477480
        0.002133336290722
        0.000481053643848
        0.000000000000000
        0.000000000000000
        0.000000000000000
        0.000000000000000
        0.002340992843099
        0.003601480999863
        0.002860644782768
        0.001198275308742
        0.000000000000000
        0.000000000000000
        0.000000000000000
        0.000000000000000
        0.000000000000000
        0.000000000000000
        0.001027189306103
        0.000879577772345
        0.000000000000000
        0.000000000000000
        0.000000000000000
        0.000000000000000
        0.000000000000000
        0.000000000000000
        0.000000000000000
        0.000000000000000
        0.000000000000000
        0.000000000000000
        0.000000000000000
        0.000000000000000
        0.000000000000000
        0.000000000000000
        0.000000000000000
        0.000000000000000
        0.000000000000000
        0.000000000000000
        0.000000000000000
        0.000000000000000
        0.000000000000000
        0.000000000000000
        0.000000000000000
        0.000000000000000
        0.000000000000000
        0.000000000000000
        0.000000000000000
        0.000000000000000
        0.000000000000000
        0.000000000000000
        0.000000000000000
        0.000000000000000
        0.000000000000000
        0.000000000000000
        0.000000000000000
        0.000000000000000
        0.000000000000000
        0.000000000000000
        0.000000000000000
        0.000000000000000
        0.000000000000000
        0.000000000000000
        0.000704415293383
        0.000761304330327
        0.000000000000000
        0.000000000000000
        0.000000000000000
        0.000000000000000
        0.000000000000000
        0.000000000000000
        0.000000000000000
        0.000960234213461
        0.001351164801707
        0.000852594994178
        0.000000000000000
        0.000000000000000
        0.000000000000000
        0.000000000000000
        0.000000000000000
        0.000000000000000
        0.000000000000000
        0.001051311351305
        0.000841130288941
        0.000000000000000
        0.000000000000000
        0.000000000000000
        0.000000000000000
        0.000000000000000
        0.000000000000000
        0.000000000000000
        0.000000000000000
        0.000000000000000
        0.000000000000000
        0.000000000000000
        0.000000000000000
        0.000000000000000
        0.000000000000000
        0.000000000000000
        0.000000000000000
        0.000000000000000
        0.000000000000000
        0.000000000000000
        0.000000000000000
        0.000000000000000
        0.000000000000000
        0.000000000000000
        0.000000000000000
        0.000000000000000
        0.000000000000000
        0.000000000000000
        0.000000000000000
        0.000000000000000
        0.000000000000000
END_DATAGRID_3D
END_BLOCK_DATAGRID_3D
