ATOMS
         C    7.558905    7.558905    7.558905
         H    8.755769    8.755769    8.755769
         H    6.362040    6.362040    8.755769
         H    8.755769    6.362040    6.362040
         H    6.362040    8.755769    6.362040
BEGIN_BLOCK_DATAGRID_3D
units: coords = b, function = 1/hbar/H*b^-2
BEGIN_DATAGRID_3D_function
      9      9      9
0.0 0.0 0.0
   15.117809    0.000000    0.000000
    0.000000   15.117809    0.000000
    0.000000    0.000000   15.117809
        0.000000000000000
        0.000000000000000
        0.000000000000000
        0.000000000000000
        0.000000000000000
        0.000000000000000
        0.000000000000000
        0.000000000000000
        0.000000000000000
        0.000000000000000
        0.000000000000000
        0.000000000000000
        0.000000000000000
        0.000000000000000
        0.000000000000000
        0.000000000000000
        0.000000000000000
        0.000000000000000
        0.000000000000000
        0.000000000000000
        0.000000000000000
        0.000000000000000
        0.000000000000000
        0.000000000000000
        0.000000000000000
        0.000000000000000
        0.000000000000000
        0.000000000000000
        0.000000000000000
        0.000000000000000
        0.000000000000000
       -0.000000000958150
        0.000000000636940
        0.000000000000000
        0.000000000000000
        0.000000000000000
        0.000000000000000
        0.000000000000000
        0.000000000000000
       -0.000000000541417
       -0.000000000000774
        0.000000000537742
        0.000000000000000
        0.000000000000000
        0.000000000000000
        0.000000000000000
        0.000000000000000
        0.000000000000000
       -0.000000000638712
        0.000000000953903
        0.000000000000000
        0.000000000000000
        0.000000000000000
        0.000000000000000
        0.000000000000000
        0.000000000000000
        0.000000000000000
        0.000000000000000
        0.000000000000000
        0.000000000000000
        0.000000000000000
        0.000000000000000
        0.000000000000000
        0.000000000000000
        0.000000000000000
        0.000000000000000
        0.000000000000000
        0.000000000000000
        0.000000000000000
        0.000000000000000
        0.000000000000000
        0.000000000000000
        0.000000000000000
        0.000000000000000
        0.000000000000000
        0.000000000000000
        0.000000000000000
        0.000000000000000
        0.000000000000000
        0.000000000000000
        0.000000000000000
        0.000000000000000
        0.000000000000000
        0.000000000000000
        0.000000000000000
        0.000000000000000
        0.000000000000000
        0.000000000000000
        0.000000000000000
        0.000000000000000
        0.000000000000000
        0.000000000000000
        0.000000000000000
        0.000000000000000
       -0.000000000648277
        0.000000000599472
        0.000000000000000
        0.000000000000000
        0.000000000000000
        0.000000000000000
        0.000000000000000
        0.000000000000000
       -0.000000001780371
       -0.000000000065413
       -0.000000000081560
        0.000000001232686
        0.000000000000000
        0.000000000000000
        0.000000000000000
        0.000000000000000
       -0.000000001211770
       -0.000000003758153
       -0.000000009172500
        0.000000006142620
        0.000000004265216
       -0.000000000221279
        0.000000000000000
        0.000000000000000
        0.000000000148357
       -0.000000002151248
       -0.000000016846784
       -0.000000000000509
        0.000000016889572
        0.000000002160954
       -0.000000000145159
        0.000000000000000
        0.000000000000000
        0.000000000221994
       -0.000000004245181
       -0.000000006146900
        0.000000009189778
        0.000000003765298
        0.000000001213330
        0.000000000000000
        0.000000000000000
        0.000000000000000
        0.000000000000000
       -0.000000001233051
        0.000000000088876
        0.000000000067398
        0.000000001780890
        0.000000000000000
        0.000000000000000
        0.000000000000000
        0.000000000000000
        0.000000000000000
        0.000000000000000
       -0.000000000599316
        0.000000000650683
        0.000000000000000
        0.000000000000000
        0.000000000000000
        0.000000000000000
        0.000000000000000
        0.000000000000000
        0.000000000000000
        0.000000000000000
        0.000000000000000
        0.000000000000000
        0.000000000000000
        0.000000000000000
        0.000000000000000
        0.000000000000000
        0.000000000000000
        0.000000000000000
        0.000000000000000
        0.000000000000000
        0.000000000000000
        0.000000000000000
        0.000000000000000
        0.000000000000000
        0.000000000000000
        0.000000000000000
        0.000000000000000
       -0.000000001239466
       -0.000000000898899
        0.000000000650084
        0.000000000732120
        0.000000000000000
        0.000000000000000
        0.000000000000000
        0.000000000000000
       -0.000000002452355
        0.000000000542483
        0.000000006061077
       -0.000000007285607
       -0.000000002735513
        0.000000000443193
        0.000000000000000
        0.000000000000000
        0.000000000053326
       -0.000000004916327
        0.000000090401580
        0.000000158128012
       -0.000000124085870
       -0.000000093593137
        0.000000005284572
        0.000000000000000
        0.000000000000000
       -0.000000003109564
        0.000000044707191
        0.000000372038717
       -0.000000000249070
       -0.000000373057553
       -0.000000044916910
        0.000000003137048
        0.000000000000000
        0.000000000000000
       -0.000000005250951
        0.000000093245452
        0.000000124928540
       -0.000000158234230
       -0.000000090769325
        0.000000004908986
       -0.000000000050260
        0.000000000000000
        0.000000000000000
       -0.000000000441487
        0.000000002715759
        0.000000007404644
       -0.000000006021559
       -0.000000000579063
        0.000000002451405
        0.000000000000000
        0.000000000000000
        0.000000000000000
        0.000000000000000
       -0.000000000734264
       -0.000000000646393
        0.000000000902440
        0.000000001237661
        0.000000000000000
        0.000000000000000
        0.000000000000000
        0.000000000000000
        0.000000000000000
        0.000000000000000
        0.000000000000000
        0.000000000000000
        0.000000000000000
        0.000000000000000
        0.000000000000000
        0.000000000000000
        0.000000000000000
        0.000000000000000
        0.000000000000000
        0.000000000000000
       -0.000000000372473
        0.000000000010512
        0.000000000000000
        0.000000000000000
        0.000000000000000
        0.000000000000000
        0.000000000000000
       -0.000000000806557
       -0.000000001947897
        0.000000000697141
       -0.000000000681123
        0.000000001031971
        0.000000000001040
        0.000000000000000
        0.000000000000000
       -0.000000000388558
       -0.000000001158025
        0.000000020579928
       -0.000000011957699
       -0.000000039740885
       -0.000000004375390
        0.000000000363794
        0.000000000000000
        0.000000000000000
       -0.000000005880578
        0.000000082391318
        0.000000271434722
       -0.000000452377257
       -0.000000856223291
       -0.000000066480615
        0.000000004262117
       -0.000000000009359
       -0.000000000086575
       -0.000000015077970
        0.000000312687433
        0.000001150210828
        0.000000005306107
       -0.000001156730525
       -0.000000314062495
        0.000000015182915
        0.000000000088326
        0.000000000009815
       -0.000000004214800
        0.000000066263362
        0.000000851828920
        0.000000453555060
       -0.000000272303442
       -0.000000082797349
        0.000000005911804
        0.000000000000000
        0.000000000000000
       -0.000000000356629
        0.000000004396890
        0.000000039623095
        0.000000012129757
       -0.000000020641527
        0.000000001125687
        0.000000000391628
        0.000000000000000
        0.000000000000000
       -0.000000000001503
       -0.000000001029434
        0.000000000696780
       -0.000000000674773
        0.000000001945197
        0.000000000806191
        0.000000000000000
        0.000000000000000
        0.000000000000000
        0.000000000000000
        0.000000000000000
       -0.000000000009775
        0.000000000371912
        0.000000000000000
        0.000000000000000
        0.000000000000000
        0.000000000000000
        0.000000000000000
        0.000000000000000
        0.000000000000000
        0.000000000009775
       -0.000000001102692
        0.000000000010512
        0.000000000000000
        0.000000000000000
        0.000000000000000
        0.000000000000000
        0.000000000001503
       -0.000000001423498
        0.000000000696303
       -0.000000000505103
        0.000000000705595
       -0.000000001416734
        0.000000000001040
        0.000000000000000
        0.000000000000000
       -0.000000000918857
        0.000000006842277
       -0.000000014571435
       -0.000000039033235
       -0.000000014803818
        0.000000006919830
       -0.000000000918966
        0.000000000000000
       -0.000000000009815
       -0.000000009618391
        0.000000151661388
       -0.000000450167091
       -0.000001111332771
       -0.000000454719598
        0.000000152336632
       -0.000000009639025
       -0.000000000009359
       -0.000000000000000
       -0.000000000000000
        0.000000000000000
       -0.000000000000000
       -0.000000000000000
       -0.000000000000000
        0.000000000000000
        0.000000000000000
       -0.000000000000000
        0.000000000009815
        0.000000009618391
       -0.000000151661388
        0.000000450167091
        0.000001111332771
        0.000000454719598
       -0.000000152336632
        0.000000009639025
        0.000000000009359
        0.000000000000000
        0.000000000918857
       -0.000000006842277
        0.000000014571435
        0.000000039033235
        0.000000014803818
       -0.000000006919830
        0.000000000918966
        0.000000000000000
        0.000000000000000
       -0.000000000001503
        0.000000001423498
       -0.000000000696303
        0.000000000505103
       -0.000000000705595
        0.000000001416734
       -0.000000000001040
        0.000000000000000
        0.000000000000000
        0.000000000000000
        0.000000000000000
       -0.000000000009775
        0.000000001102692
       -0.000000000010512
        0.000000000000000
        0.000000000000000
        0.000000000000000
        0.000000000000000
        0.000000000000000
        0.000000000000000
        0.000000000009775
       -0.000000000371912
        0.000000000000000
        0.000000000000000
        0.000000000000000
        0.000000000000000
        0.000000000000000
        0.000000000001503
        0.000000001029434
       -0.000000000696780
        0.000000000674773
       -0.000000001945197
       -0.000000000806191
        0.000000000000000
        0.000000000000000
        0.000000000000000
        0.000000000356629
       -0.000000004396890
       -0.000000039623095
       -0.000000012129757
        0.000000020641527
       -0.000000001125687
       -0.000000000391628
        0.000000000000000
       -0.000000000009815
        0.000000004214800
       -0.000000066263362
       -0.000000851828920
       -0.000000453555060
        0.000000272303442
        0.000000082797349
       -0.000000005911804
        0.000000000000000
        0.000000000086575
        0.000000015077970
       -0.000000312687433
       -0.000001150210828
       -0.000000005306107
        0.000001156730525
        0.000000314062495
       -0.000000015182915
       -0.000000000088326
        0.000000000000000
        0.000000005880578
       -0.000000082391318
       -0.000000271434722
        0.000000452377257
        0.000000856223291
        0.000000066480615
       -0.000000004262117
        0.000000000009359
        0.000000000000000
        0.000000000388558
        0.000000001158025
       -0.000000020579928
        0.000000011957699
        0.000000039740885
        0.000000004375390
       -0.000000000363794
        0.000000000000000
        0.000000000000000
        0.000000000000000
        0.000000000806557
        0.000000001947897
       -0.000000000697141
        0.000000000681123
       -0.000000001031971
       -0.000000000001040
        0.000000000000000
        0.000000000000000
        0.000000000000000
        0.000000000000000
        0.000000000000000
        0.000000000372473
       -0.000000000010512
        0.000000000000000
        0.000000000000000
        0.000000000000000
        0.000000000000000
        0.000000000000000
        0.000000000000000
        0.000000000000000
        0.000000000000000
        0.000000000000000
        0.000000000000000
        0.000000000000000
        0.000000000000000
        0.000000000000000
        0.000000000000000
        0.000000000734264
        0.000000000646393
       -0.000000000902440
       -0.000000001237661
        0.000000000000000
        0.000000000000000
        0.000000000000000
        0.000000000000000
        0.000000000441487
       -0.000000002715759
       -0.000000007404644
        0.000000006021559
        0.000000000579063
       -0.000000002451405
        0.000000000000000
        0.000000000000000
        0.000000000000000
        0.000000005250951
       -0.000000093245452
       -0.000000124928540
        0.000000158234230
        0.000000090769325
       -0.000000004908986
        0.000000000050260
        0.000000000000000
        0.000000000000000
        0.000000003109564
       -0.000000044707191
       -0.000000372038717
        0.000000000249070
        0.000000373057553
        0.000000044916910
       -0.000000003137048
        0.000000000000000
        0.000000000000000
       -0.000000000053326
        0.000000004916327
       -0.000000090401580
       -0.000000158128012
        0.000000124085870
        0.000000093593137
       -0.000000005284572
        0.000000000000000
        0.000000000000000
        0.000000000000000
        0.000000002452355
       -0.000000000542483
       -0.000000006061077
        0.000000007285607
        0.000000002735513
       -0.000000000443193
        0.000000000000000
        0.000000000000000
        0.000000000000000
        0.000000000000000
        0.000000001239466
        0.000000000898899
       -0.000000000650084
       -0.000000000732120
        0.000000000000000
        0.000000000000000
        0.000000000000000
        0.000000000000000
        0.000000000000000
        0.000000000000000
        0.000000000000000
        0.000000000000000
        0.000000000000000
        0.000000000000000
        0.000000000000000
        0.000000000000000
        0.000000000000000
        0.000000000000000
        0.000000000000000
        0.000000000000000
        0.000000000000000
        0.000000000000000
        0.000000000000000
        0.000000000000000
        0.000000000000000
        0.000000000000000
        0.000000000000000
        0.000000000599316
       -0.000000000650683
        0.000000000000000
        0.000000000000000
        0.000000000000000
        0.000000000000000
        0.000000000000000
        0.000000000000000
        0.000000001233051
       -0.000000000088876
       -0.000000000067398
       -0.000000001780890
        0.000000000000000
        0.000000000000000
        0.000000000000000
        0.000000000000000
       -0.000000000221994
        0.000000004245181
        0.000000006146900
       -0.000000009189778
       -0.000000003765298
       -0.000000001213330
        0.000000000000000
        0.000000000000000
        0.000000000000000
       -0.000000000148357
        0.000000002151248
        0.000000016846784
        0.000000000000509
       -0.000000016889572
       -0.000000002160954
        0.000000000145159
        0.000000000000000
        0.000000000000000
        0.000000000000000
        0.000000001211770
        0.000000003758153
        0.000000009172500
       -0.000000006142620
       -0.000000004265216
        0.000000000221279
        0.000000000000000
        0.000000000000000
        0.000000000000000
        0.000000000000000
        0.000000001780371
        0.000000000065413
        0.000000000081560
       -0.000000001232686
        0.000000000000000
        0.000000000000000
        0.000000000000000
        0.000000000000000
        0.000000000000000
        0.000000000000000
        0.000000000648277
       -0.000000000599472
        0.000000000000000
        0.000000000000000
        0.000000000000000
        0.000000000000000
        0.000000000000000
        0.000000000000000
        0.000000000000000
        0.000000000000000
        0.000000000000000
        0.000000000000000
        0.000000000000000
        0.000000000000000
        0.000000000000000
        0.000000000000000
        0.000000000000000
        0.000000000000000
        0.000000000000000
        0.000000000000000
        0.000000000000000
        0.000000000000000
        0.000000000000000
        0.000000000000000
        0.000000000000000
        0.000000000000000
        0.000000000000000
        0.000000000000000
        0.000000000000000
        0.000000000000000
        0.000000000000000
        0.000000000000000
        0.000000000000000
        0.000000000000000
        0.000000000000000
        0.000000000000000
        0.000000000000000
        0.000000000000000
        0.000000000000000
        0.000000000000000
        0.000000000000000
        0.000000000000000
        0.000000000000000
        0.000000000000000
        0.000000000638712
       -0.000000000953903
        0.000000000000000
        0.000000000000000
        0.000000000000000
        0.000000000000000
        0.000000000000000
        0.000000000000000
        0.000000000000000
        0.000000000541417
        0.000000000000774
       -0.000000000537742
        0.000000000000000
        0.000000000000000
        0.000000000000000
        0.000000000000000
        0.000000000000000
        0.000000000000000
        0.000000000000000
        0.000000000958150
       -0.000000000636940
        0.000000000000000
        0.000000000000000
        0.000000000000000
        0.000000000000000
        0.000000000000000
        0.000000000000000
        0.000000000000000
        0.000000000000000
        0.000000000000000
        0.000000000000000
        0.000000000000000
        0.000000000000000
        0.000000000000000
        0.000000000000000
        0.000000000000000
        0.000000000000000
        0.000000000000000
        0.000000000000000
        0.000000000000000
        0.000000000000000
        0.000000000000000
        0.000000000000000
        0.000000000000000
        0.000000000000000
        0.000000000000000
        0.000000000000000
        0.000000000000000
        0.000000000000000
        0.000000000000000
        0.000000000000000
END_DATAGRID_3D
END_BLOCK_DATAGRID_3D
