ATOMS
         C    7.558905    7.558905    7.558905
         H    8.755769    8.755769    8.755769
         H    6.362040    6.362040    8.755769
         H    8.755769    6.362040    6.362040
         H    6.362040    8.755769    6.362040
BEGIN_BLOCK_DATAGRID_3D
units: coords = b, function = sqrt(b^-3)
BEGIN_DATAGRID_3D_function
      9      9      9
0.0 0.0 0.0
   15.117809    0.000000    0.000000
    0.000000   15.117809    0.000000
    0.000000    0.000000   15.117809
        0.000000000000000
        0.000000000000000
        0.000000000000000
        0.000000000000000
        0.000000000000000
        0.000000000000000
        0.000000000000000
        0.000000000000000
        0.000000000000000
        0.000000000000000
        0.000000000000000
        0.000000000000000
        0.000000000000000
        0.000000000000000
        0.000000000000000
        0.000000000000000
        0.000000000000000
        0.000000000000000
        0.000000000000000
        0.000000000000000
        0.000000000000000
        0.000000000000000
        0.000000000000000
        0.000000000000000
        0.000000000000000
        0.000000000000000
        0.000000000000000
        0.000000000000000
        0.000000000000000
        0.000000000000000
        0.000000000000000
       -0.000136839738537
        0.000051609754301
        0.000000000000000
        0.000000000000000
        0.000000000000000
        0.000000000000000
        0.000000000000000
        0.000000000000000
       -0.000303260422306
       -0.000126905268226
        0.000132664610178
        0.000000000000000
        0.000000000000000
        0.000000000000000
        0.000000000000000
        0.000000000000000
        0.000000000000000
       -0.000196966629346
       -0.000033280801833
        0.000000000000000
        0.000000000000000
        0.000000000000000
        0.000000000000000
        0.000000000000000
        0.000000000000000
        0.000000000000000
        0.000000000000000
        0.000000000000000
        0.000000000000000
        0.000000000000000
        0.000000000000000
        0.000000000000000
        0.000000000000000
        0.000000000000000
        0.000000000000000
        0.000000000000000
        0.000000000000000
        0.000000000000000
        0.000000000000000
        0.000000000000000
        0.000000000000000
        0.000000000000000
        0.000000000000000
        0.000000000000000
        0.000000000000000
        0.000000000000000
        0.000000000000000
        0.000000000000000
        0.000000000000000
        0.000000000000000
        0.000000000000000
        0.000000000000000
        0.000000000000000
        0.000000000000000
        0.000000000000000
        0.000000000000000
        0.000000000000000
        0.000000000000000
        0.000000000000000
        0.000000000000000
        0.000000000000000
        0.000000000000000
        0.000000000000000
       -0.000295486780526
       -0.000100845276943
        0.000000000000000
        0.000000000000000
        0.000000000000000
        0.000000000000000
        0.000000000000000
        0.000000000000000
       -0.001071992575229
       -0.000894423783472
       -0.000013462145072
        0.000295039437853
        0.000000000000000
        0.000000000000000
        0.000000000000000
        0.000000000000000
       -0.001417082111567
       -0.002295950475035
       -0.001279116513331
        0.000605816344492
        0.000970940460528
        0.000438248547160
        0.000000000000000
        0.000000000000000
       -0.000693423574111
       -0.001977438109441
       -0.002597071596313
       -0.000736841423825
        0.001512340807081
        0.001515556516279
        0.000577217528574
        0.000000000000000
        0.000000000000000
       -0.000546457709154
       -0.001375560445364
       -0.001486572246943
        0.000199302652972
        0.001577461511380
        0.001143235232611
        0.000000000000000
        0.000000000000000
        0.000000000000000
        0.000000000000000
       -0.000481815761187
       -0.000386144728607
        0.000440686279798
        0.000801980022703
        0.000000000000000
        0.000000000000000
        0.000000000000000
        0.000000000000000
        0.000000000000000
        0.000000000000000
       -0.000003926562296
        0.000183755736555
        0.000000000000000
        0.000000000000000
        0.000000000000000
        0.000000000000000
        0.000000000000000
        0.000000000000000
        0.000000000000000
        0.000000000000000
        0.000000000000000
        0.000000000000000
        0.000000000000000
        0.000000000000000
        0.000000000000000
        0.000000000000000
        0.000000000000000
        0.000000000000000
        0.000000000000000
        0.000000000000000
        0.000000000000000
        0.000000000000000
        0.000000000000000
        0.000000000000000
        0.000000000000000
        0.000000000000000
        0.000000000000000
       -0.001423932881523
       -0.001397626767195
       -0.000386878735081
        0.000137833981572
        0.000000000000000
        0.000000000000000
        0.000000000000000
        0.000000000000000
       -0.002884723499902
       -0.005448879509714
       -0.004327918565639
        0.000066444617871
        0.001300582413921
        0.000625517233935
        0.000000000000000
        0.000000000000000
       -0.002059099333165
       -0.006955360672441
       -0.011893510752567
       -0.007359061610457
        0.004265209622004
        0.004550690574033
        0.001754953770738
        0.000000000000000
        0.000000000000000
       -0.002895975294710
       -0.009105247486432
       -0.015003928740707
       -0.003378045968067
        0.010723819653082
        0.007651698337751
        0.002570566847165
        0.000000000000000
        0.000000000000000
       -0.002057846774431
       -0.005841373655414
       -0.007678705939343
        0.003107959637276
        0.009460252953829
        0.006113039108850
        0.001880230763059
        0.000000000000000
        0.000000000000000
       -0.000769320117532
       -0.001877251748659
       -0.001337276091472
        0.002909762672233
        0.004624456354218
        0.002614297710829
        0.000000000000000
        0.000000000000000
        0.000000000000000
        0.000000000000000
       -0.000277893046273
        0.000097254180567
        0.001090598259463
        0.001255698553082
        0.000000000000000
        0.000000000000000
        0.000000000000000
        0.000000000000000
        0.000000000000000
        0.000000000000000
        0.000000000000000
        0.000000000000000
        0.000000000000000
        0.000000000000000
        0.000000000000000
        0.000000000000000
        0.000000000000000
        0.000000000000000
        0.000000000000000
        0.000000000000000
       -0.000574479109735
       -0.000292889654202
        0.000000000000000
        0.000000000000000
        0.000000000000000
        0.000000000000000
        0.000000000000000
       -0.002191019083891
       -0.004118214774655
       -0.003718771818908
       -0.001115320537685
        0.000281095518916
        0.000264825487931
        0.000000000000000
        0.000000000000000
       -0.002481154593157
       -0.008795372254115
       -0.016701612148356
       -0.014303594882592
       -0.000031367490010
        0.003107497647725
        0.001438485452053
        0.000000000000000
        0.000000000000000
       -0.005616305571366
       -0.020642138931958
       -0.043985607060444
       -0.032282589375692
        0.017981294092572
        0.013308038016330
        0.004222164422350
        0.000774424472932
       -0.001102718161640
       -0.007046944186958
       -0.027642596925822
       -0.062166336986014
       -0.008975290515376
        0.052669687625664
        0.025322829465018
        0.006631068754067
        0.001050233838702
       -0.000826520946968
       -0.004628559233696
       -0.015504558697185
       -0.025923856064593
        0.022910104073835
        0.039939297201542
        0.019550718629852
        0.005395923016857
        0.000000000000000
        0.000000000000000
       -0.001646295531973
       -0.003969427081393
       -0.002118756763659
        0.012076764289745
        0.015657344375663
        0.008479063487138
        0.002421669150041
        0.000000000000000
        0.000000000000000
       -0.000320929562923
       -0.000480549494002
        0.000741273507627
        0.003350205911066
        0.003925648237667
        0.002138488772837
        0.000000000000000
        0.000000000000000
        0.000000000000000
        0.000000000000000
        0.000000000000000
        0.000248765317956
        0.000532371822910
        0.000000000000000
        0.000000000000000
        0.000000000000000
        0.000000000000000
        0.000000000000000
        0.000000000000000
        0.000000000000000
       -0.000945306531842
       -0.000996115930988
       -0.000391501481533
        0.000000000000000
        0.000000000000000
        0.000000000000000
        0.000000000000000
       -0.001180086713819
       -0.003807337423456
       -0.006653887275590
       -0.005780728877026
       -0.001822754738344
        0.000238410174183
        0.000296607821858
        0.000000000000000
        0.000000000000000
       -0.004222959660402
       -0.014952598846136
       -0.031319211841989
       -0.026474694791672
       -0.002033702155329
        0.003798846563255
        0.001796445563196
        0.000000000000000
       -0.001307221473212
       -0.008665107168758
       -0.037013581663400
       -0.098762110524870
       -0.070246381844830
        0.025324969483700
        0.019509484218277
        0.005735307005927
        0.000963735657176
       -0.001712772532677
       -0.009927415152190
       -0.045374827100208
       -0.120333454468306
       -0.000037793731106
        0.119983193551719
        0.045212894822821
        0.009854617482980
        0.001696042801815
       -0.000990235776546
       -0.005881692999368
       -0.020106895619110
       -0.026806563385671
        0.070149177835186
        0.099856374085790
        0.037382680927551
        0.008705906178671
        0.001312118329581
        0.000000000000000
       -0.001889305247278
       -0.004108345606136
        0.001501241655646
        0.026448835041179
        0.031753191011589
        0.015171807460604
        0.004272652855033
        0.000000000000000
        0.000000000000000
       -0.000328588367122
       -0.000320589404854
        0.001719594733137
        0.005776896215419
        0.006739589547932
        0.003868017466353
        0.001201489024156
        0.000000000000000
        0.000000000000000
        0.000000000000000
        0.000000000000000
        0.000374853498470
        0.000995576345054
        0.000960376781690
        0.000000000000000
        0.000000000000000
        0.000000000000000
        0.000000000000000
        0.000000000000000
        0.000000000000000
       -0.000847059462062
       -0.000761848411948
        0.000000000000000
        0.000000000000000
        0.000000000000000
        0.000000000000000
        0.000000000000000
       -0.001092374270812
       -0.003420588775915
       -0.005779475736061
       -0.004752292126300
       -0.001486010197019
        0.000080358144202
        0.000000000000000
        0.000000000000000
        0.000000000000000
       -0.003729957337948
       -0.013086577119070
       -0.026643401637628
       -0.019018436195146
       -0.002204804089940
        0.002397361089121
        0.001169123738883
        0.000000000000000
       -0.001132483062277
       -0.007202365331543
       -0.030171604610609
       -0.079811628367762
       -0.041029480882953
        0.012945748485938
        0.012692930863247
        0.004153795688744
        0.000000000000000
       -0.001194739088118
       -0.007499855981168
       -0.029477880356689
       -0.063402336924527
        0.008878086505732
        0.072511655943825
        0.031569335680810
        0.007810144430531
        0.001225620148054
        0.000000000000000
       -0.004001133646676
       -0.011748505485212
       -0.009077852209007
        0.050266244413430
        0.087433030633801
        0.032186344205173
        0.007522232420108
        0.001166149527092
        0.000000000000000
       -0.001134660348129
       -0.002135725103799
        0.003198700894598
        0.021209672431402
        0.028702922247587
        0.013868981975355
        0.003899645086961
        0.000000000000000
        0.000000000000000
        0.000000000000000
       -0.000038655196920
        0.001668792360403
        0.005114896459649
        0.006136786219936
        0.003599818134072
        0.001138555476886
        0.000000000000000
        0.000000000000000
        0.000000000000000
        0.000000000000000
        0.000000000000000
        0.000803362500688
        0.000889629898874
        0.000000000000000
        0.000000000000000
        0.000000000000000
        0.000000000000000
        0.000000000000000
        0.000000000000000
        0.000000000000000
        0.000000000000000
        0.000000000000000
        0.000000000000000
        0.000000000000000
        0.000000000000000
        0.000000000000000
        0.000000000000000
       -0.001593976081190
       -0.002746946227060
       -0.002162177183699
       -0.000682555580707
        0.000000000000000
        0.000000000000000
        0.000000000000000
        0.000000000000000
       -0.001724651858806
       -0.005781488603934
       -0.010024332198990
       -0.006787660704339
       -0.000930011868159
        0.000848155842608
        0.000000000000000
        0.000000000000000
        0.000000000000000
       -0.003318406095490
       -0.011214630545049
       -0.021083452461944
       -0.010049631542677
        0.003992287331894
        0.004763385467410
        0.001710562125866
        0.000000000000000
        0.000000000000000
       -0.003216289612970
       -0.009955696965840
       -0.014814041445636
        0.003352186217574
        0.018995669203178
        0.011318955686108
        0.003498531571064
        0.000000000000000
        0.000000000000000
       -0.001556715608120
       -0.003975736685472
       -0.001609400501191
        0.014265139159267
        0.024406345135572
        0.012425789049047
        0.003583176768276
        0.000000000000000
        0.000000000000000
        0.000000000000000
       -0.000594450663470
        0.001738689221823
        0.008193455136055
        0.011258933728103
        0.006320302865932
        0.001851089466693
        0.000000000000000
        0.000000000000000
        0.000000000000000
        0.000000000000000
        0.000848514821753
        0.002466485276706
        0.003028036725714
        0.001725115919649
        0.000000000000000
        0.000000000000000
        0.000000000000000
        0.000000000000000
        0.000000000000000
        0.000000000000000
        0.000000000000000
        0.000000000000000
        0.000000000000000
        0.000000000000000
        0.000000000000000
        0.000000000000000
        0.000000000000000
        0.000000000000000
        0.000000000000000
        0.000000000000000
        0.000000000000000
        0.000000000000000
        0.000000000000000
        0.000000000000000
        0.000000000000000
        0.000000000000000
        0.000000000000000
       -0.000722780972817
       -0.000583174711303
        0.000000000000000
        0.000000000000000
        0.000000000000000
        0.000000000000000
        0.000000000000000
        0.000000000000000
       -0.001390053366277
       -0.002263547317887
       -0.001512265204034
       -0.000228837050328
        0.000000000000000
        0.000000000000000
        0.000000000000000
        0.000000000000000
       -0.000866846124581
       -0.002525577824553
       -0.003551629981491
       -0.001601388868206
        0.000862176529268
        0.001075611684428
        0.000000000000000
        0.000000000000000
        0.000000000000000
       -0.000815251506830
       -0.002150488718868
       -0.002337220946140
        0.000733008762218
        0.003404494002508
        0.002590871124257
        0.000920879317440
        0.000000000000000
        0.000000000000000
        0.000000000000000
       -0.000812592169244
       -0.000153471939218
        0.002675241154071
        0.004415649337759
        0.002909973192460
        0.000965132417657
        0.000000000000000
        0.000000000000000
        0.000000000000000
        0.000000000000000
        0.000496574515458
        0.001963282292983
        0.002654620135705
        0.001567910463369
        0.000000000000000
        0.000000000000000
        0.000000000000000
        0.000000000000000
        0.000000000000000
        0.000000000000000
        0.000694198447057
        0.000825730770638
        0.000000000000000
        0.000000000000000
        0.000000000000000
        0.000000000000000
        0.000000000000000
        0.000000000000000
        0.000000000000000
        0.000000000000000
        0.000000000000000
        0.000000000000000
        0.000000000000000
        0.000000000000000
        0.000000000000000
        0.000000000000000
        0.000000000000000
        0.000000000000000
        0.000000000000000
        0.000000000000000
        0.000000000000000
        0.000000000000000
        0.000000000000000
        0.000000000000000
        0.000000000000000
        0.000000000000000
        0.000000000000000
        0.000000000000000
        0.000000000000000
        0.000000000000000
        0.000000000000000
        0.000000000000000
        0.000000000000000
        0.000000000000000
        0.000000000000000
        0.000000000000000
        0.000000000000000
        0.000000000000000
        0.000000000000000
        0.000000000000000
        0.000000000000000
        0.000000000000000
        0.000000000000000
        0.000000000000000
       -0.000401327514760
       -0.000196195787205
        0.000000000000000
        0.000000000000000
        0.000000000000000
        0.000000000000000
        0.000000000000000
        0.000000000000000
        0.000000000000000
       -0.000267192611066
        0.000126365682292
        0.000436210689979
        0.000000000000000
        0.000000000000000
        0.000000000000000
        0.000000000000000
        0.000000000000000
        0.000000000000000
        0.000000000000000
        0.000365723129491
        0.000545130490372
        0.000000000000000
        0.000000000000000
        0.000000000000000
        0.000000000000000
        0.000000000000000
        0.000000000000000
        0.000000000000000
        0.000000000000000
        0.000000000000000
        0.000000000000000
        0.000000000000000
        0.000000000000000
        0.000000000000000
        0.000000000000000
        0.000000000000000
        0.000000000000000
        0.000000000000000
        0.000000000000000
        0.000000000000000
        0.000000000000000
        0.000000000000000
        0.000000000000000
        0.000000000000000
        0.000000000000000
        0.000000000000000
        0.000000000000000
        0.000000000000000
        0.000000000000000
        0.000000000000000
        0.000000000000000
END_DATAGRID_3D
END_BLOCK_DATAGRID_3D
