ATOMS
         C    7.558905    7.558905    7.558905
         H    8.755769    8.755769    8.755769
         H    6.362040    6.362040    8.755769
         H    8.755769    6.362040    6.362040
         H    6.362040    8.755769    6.362040
BEGIN_BLOCK_DATAGRID_3D
units: coords = b, function = 1/hbar/H*b^-2
BEGIN_DATAGRID_3D_function
      9      9      9
0.0 0.0 0.0
   15.117809    0.000000    0.000000
    0.000000   15.117809    0.000000
    0.000000    0.000000   15.117809
        0.000000000000000
        0.000000000000000
        0.000000000000000
        0.000000000000000
        0.000000000000000
        0.000000000000000
        0.000000000000000
        0.000000000000000
        0.000000000000000
        0.000000000000000
        0.000000000000000
        0.000000000000000
        0.000000000000000
        0.000000000000000
        0.000000000000000
        0.000000000000000
        0.000000000000000
        0.000000000000000
        0.000000000000000
        0.000000000000000
        0.000000000000000
        0.000000000000000
        0.000000000000000
        0.000000000000000
        0.000000000000000
        0.000000000000000
        0.000000000000000
        0.000000000000000
        0.000000000000000
        0.000000000000000
        0.000000000000000
       -0.000000003657501
        0.000000002350837
        0.000000000000000
        0.000000000000000
        0.000000000000000
        0.000000000000000
        0.000000000000000
        0.000000000000000
       -0.000000003042082
       -0.000000000006681
        0.000000003044440
        0.000000000000000
        0.000000000000000
        0.000000000000000
        0.000000000000000
        0.000000000000000
        0.000000000000000
       -0.000000002356779
        0.000000003649722
        0.000000000000000
        0.000000000000000
        0.000000000000000
        0.000000000000000
        0.000000000000000
        0.000000000000000
        0.000000000000000
        0.000000000000000
        0.000000000000000
        0.000000000000000
        0.000000000000000
        0.000000000000000
        0.000000000000000
        0.000000000000000
        0.000000000000000
        0.000000000000000
        0.000000000000000
        0.000000000000000
        0.000000000000000
        0.000000000000000
        0.000000000000000
        0.000000000000000
        0.000000000000000
        0.000000000000000
        0.000000000000000
        0.000000000000000
        0.000000000000000
        0.000000000000000
        0.000000000000000
        0.000000000000000
        0.000000000000000
        0.000000000000000
        0.000000000000000
        0.000000000000000
        0.000000000000000
        0.000000000000000
        0.000000000000000
        0.000000000000000
        0.000000000000000
        0.000000000000000
        0.000000000000000
        0.000000000000000
        0.000000000000000
        0.000000000000000
       -0.000000002001557
        0.000000001804318
        0.000000000000000
        0.000000000000000
        0.000000000000000
        0.000000000000000
        0.000000000000000
        0.000000000000000
       -0.000000006270046
       -0.000000002818092
        0.000000001460368
        0.000000004593303
        0.000000000000000
        0.000000000000000
        0.000000000000000
        0.000000000000000
       -0.000000005459863
       -0.000000013880076
       -0.000000029931855
        0.000000026988557
        0.000000011125023
        0.000000000080658
        0.000000000000000
        0.000000000000000
        0.000000000117808
       -0.000000010162561
       -0.000000051724047
       -0.000000000070820
        0.000000051807163
        0.000000010241296
       -0.000000000112932
        0.000000000000000
        0.000000000000000
       -0.000000000074429
       -0.000000011058497
       -0.000000026972894
        0.000000029892208
        0.000000013916369
        0.000000005498282
        0.000000000000000
        0.000000000000000
        0.000000000000000
        0.000000000000000
       -0.000000004573356
       -0.000000001460714
        0.000000002813057
        0.000000006295085
        0.000000000000000
        0.000000000000000
        0.000000000000000
        0.000000000000000
        0.000000000000000
        0.000000000000000
       -0.000000001804727
        0.000000002000232
        0.000000000000000
        0.000000000000000
        0.000000000000000
        0.000000000000000
        0.000000000000000
        0.000000000000000
        0.000000000000000
        0.000000000000000
        0.000000000000000
        0.000000000000000
        0.000000000000000
        0.000000000000000
        0.000000000000000
        0.000000000000000
        0.000000000000000
        0.000000000000000
        0.000000000000000
        0.000000000000000
        0.000000000000000
        0.000000000000000
        0.000000000000000
        0.000000000000000
        0.000000000000000
        0.000000000000000
        0.000000000000000
       -0.000000004361599
       -0.000000004081506
        0.000000002795417
        0.000000002686707
        0.000000000000000
        0.000000000000000
        0.000000000000000
        0.000000000000000
       -0.000000009121857
        0.000000006026731
        0.000000040039372
       -0.000000034285354
       -0.000000020919955
        0.000000002085191
        0.000000000000000
        0.000000000000000
       -0.000000001781260
       -0.000000003618892
        0.000000407724790
        0.000000628129851
       -0.000000633975150
       -0.000000359794414
        0.000000013971617
        0.000000000000000
        0.000000000000000
       -0.000000013577872
        0.000000247010921
        0.000001522182796
        0.000000002072913
       -0.000001527395106
       -0.000000249921384
        0.000000013681580
        0.000000000000000
        0.000000000000000
       -0.000000013925466
        0.000000356765135
        0.000000635244162
       -0.000000626867237
       -0.000000410527302
        0.000000003337961
        0.000000001814674
        0.000000000000000
        0.000000000000000
       -0.000000002072824
        0.000000020695874
        0.000000034643130
       -0.000000039925951
       -0.000000006233658
        0.000000009171284
        0.000000000000000
        0.000000000000000
        0.000000000000000
        0.000000000000000
       -0.000000002678661
       -0.000000002793233
        0.000000004081157
        0.000000004372634
        0.000000000000000
        0.000000000000000
        0.000000000000000
        0.000000000000000
        0.000000000000000
        0.000000000000000
        0.000000000000000
        0.000000000000000
        0.000000000000000
        0.000000000000000
        0.000000000000000
        0.000000000000000
        0.000000000000000
        0.000000000000000
        0.000000000000000
        0.000000000000000
       -0.000000001327107
       -0.000000000063682
        0.000000000000000
        0.000000000000000
        0.000000000000000
        0.000000000000000
        0.000000000000000
       -0.000000003064090
       -0.000000008025629
        0.000000000936926
       -0.000000000318745
        0.000000003778505
       -0.000000000039569
        0.000000000000000
        0.000000000000000
       -0.000000002162105
        0.000000001285680
        0.000000110380766
       -0.000000066104627
       -0.000000231937636
       -0.000000018131319
        0.000000001962094
        0.000000000000000
        0.000000000000000
       -0.000000020775625
        0.000000382964197
        0.000001051993025
       -0.000001926326359
       -0.000003432778119
       -0.000000361385110
        0.000000015421752
       -0.000000000156417
       -0.000000001115027
       -0.000000033923765
        0.000001224418305
        0.000003122149057
        0.000000036910485
       -0.000003152380161
       -0.000001234072932
        0.000000033787538
        0.000000001139464
        0.000000000156417
       -0.000000015318366
        0.000000357444002
        0.000003414101296
        0.000001943862156
       -0.000001056368715
       -0.000000386573202
        0.000000020843701
        0.000000000000000
        0.000000000000000
       -0.000000001927930
        0.000000017891202
        0.000000230634468
        0.000000067546363
       -0.000000110973951
       -0.000000001471991
        0.000000002181867
        0.000000000000000
        0.000000000000000
        0.000000000039817
       -0.000000003757699
        0.000000000331425
       -0.000000000918338
        0.000000008038010
        0.000000003076453
        0.000000000000000
        0.000000000000000
        0.000000000000000
        0.000000000000000
        0.000000000000000
        0.000000000062542
        0.000000001326798
        0.000000000000000
        0.000000000000000
        0.000000000000000
        0.000000000000000
        0.000000000000000
        0.000000000000000
        0.000000000000000
       -0.000000000062542
       -0.000000003942143
       -0.000000000063682
        0.000000000000000
        0.000000000000000
        0.000000000000000
        0.000000000000000
       -0.000000000039817
       -0.000000005411828
        0.000000001630919
       -0.000000000792219
        0.000000001646902
       -0.000000005422358
       -0.000000000039569
        0.000000000000000
        0.000000000000000
       -0.000000004652927
        0.000000043344529
       -0.000000085131009
       -0.000000242436858
       -0.000000086606684
        0.000000043781160
       -0.000000004668500
        0.000000000000000
       -0.000000000156417
       -0.000000022605683
        0.000000521178321
       -0.000001713496475
       -0.000004558022099
       -0.000001730290511
        0.000000524652417
       -0.000000022560597
       -0.000000000156417
       -0.000000000000000
        0.000000000000000
        0.000000000000000
       -0.000000000000000
        0.000000000000000
       -0.000000000000000
       -0.000000000000000
        0.000000000000000
        0.000000000000000
        0.000000000156417
        0.000000022605683
       -0.000000521178321
        0.000001713496475
        0.000004558022099
        0.000001730290511
       -0.000000524652417
        0.000000022560597
        0.000000000156417
        0.000000000000000
        0.000000004652927
       -0.000000043344529
        0.000000085131009
        0.000000242436858
        0.000000086606684
       -0.000000043781160
        0.000000004668500
        0.000000000000000
        0.000000000000000
        0.000000000039817
        0.000000005411828
       -0.000000001630919
        0.000000000792219
       -0.000000001646902
        0.000000005422358
        0.000000000039569
        0.000000000000000
        0.000000000000000
        0.000000000000000
        0.000000000000000
        0.000000000062542
        0.000000003942143
        0.000000000063682
        0.000000000000000
        0.000000000000000
        0.000000000000000
        0.000000000000000
        0.000000000000000
        0.000000000000000
       -0.000000000062542
       -0.000000001326798
        0.000000000000000
        0.000000000000000
        0.000000000000000
        0.000000000000000
        0.000000000000000
       -0.000000000039817
        0.000000003757699
       -0.000000000331425
        0.000000000918338
       -0.000000008038010
       -0.000000003076453
        0.000000000000000
        0.000000000000000
        0.000000000000000
        0.000000001927930
       -0.000000017891202
       -0.000000230634468
       -0.000000067546363
        0.000000110973951
        0.000000001471991
       -0.000000002181867
        0.000000000000000
       -0.000000000156417
        0.000000015318366
       -0.000000357444002
       -0.000003414101296
       -0.000001943862156
        0.000001056368715
        0.000000386573202
       -0.000000020843701
        0.000000000000000
        0.000000001115027
        0.000000033923765
       -0.000001224418305
       -0.000003122149057
       -0.000000036910485
        0.000003152380161
        0.000001234072932
       -0.000000033787538
       -0.000000001139464
        0.000000000000000
        0.000000020775625
       -0.000000382964197
       -0.000001051993025
        0.000001926326359
        0.000003432778119
        0.000000361385110
       -0.000000015421752
        0.000000000156417
        0.000000000000000
        0.000000002162105
       -0.000000001285680
       -0.000000110380766
        0.000000066104627
        0.000000231937636
        0.000000018131319
       -0.000000001962094
        0.000000000000000
        0.000000000000000
        0.000000000000000
        0.000000003064090
        0.000000008025629
       -0.000000000936926
        0.000000000318745
       -0.000000003778505
        0.000000000039569
        0.000000000000000
        0.000000000000000
        0.000000000000000
        0.000000000000000
        0.000000000000000
        0.000000001327107
        0.000000000063682
        0.000000000000000
        0.000000000000000
        0.000000000000000
        0.000000000000000
        0.000000000000000
        0.000000000000000
        0.000000000000000
        0.000000000000000
        0.000000000000000
        0.000000000000000
        0.000000000000000
        0.000000000000000
        0.000000000000000
        0.000000000000000
        0.000000002678661
        0.000000002793233
       -0.000000004081157
       -0.000000004372634
        0.000000000000000
        0.000000000000000
        0.000000000000000
        0.000000000000000
        0.000000002072824
       -0.000000020695874
       -0.000000034643130
        0.000000039925951
        0.000000006233658
       -0.000000009171284
        0.000000000000000
        0.000000000000000
        0.000000000000000
        0.000000013925466
       -0.000000356765135
       -0.000000635244162
        0.000000626867237
        0.000000410527302
       -0.000000003337961
       -0.000000001814674
        0.000000000000000
        0.000000000000000
        0.000000013577872
       -0.000000247010921
       -0.000001522182796
       -0.000000002072913
        0.000001527395106
        0.000000249921384
       -0.000000013681580
        0.000000000000000
        0.000000000000000
        0.000000001781260
        0.000000003618892
       -0.000000407724790
       -0.000000628129851
        0.000000633975150
        0.000000359794414
       -0.000000013971617
        0.000000000000000
        0.000000000000000
        0.000000000000000
        0.000000009121857
       -0.000000006026731
       -0.000000040039372
        0.000000034285354
        0.000000020919955
       -0.000000002085191
        0.000000000000000
        0.000000000000000
        0.000000000000000
        0.000000000000000
        0.000000004361599
        0.000000004081506
       -0.000000002795417
       -0.000000002686707
        0.000000000000000
        0.000000000000000
        0.000000000000000
        0.000000000000000
        0.000000000000000
        0.000000000000000
        0.000000000000000
        0.000000000000000
        0.000000000000000
        0.000000000000000
        0.000000000000000
        0.000000000000000
        0.000000000000000
        0.000000000000000
        0.000000000000000
        0.000000000000000
        0.000000000000000
        0.000000000000000
        0.000000000000000
        0.000000000000000
        0.000000000000000
        0.000000000000000
        0.000000000000000
        0.000000001804727
       -0.000000002000232
        0.000000000000000
        0.000000000000000
        0.000000000000000
        0.000000000000000
        0.000000000000000
        0.000000000000000
        0.000000004573356
        0.000000001460714
       -0.000000002813057
       -0.000000006295085
        0.000000000000000
        0.000000000000000
        0.000000000000000
        0.000000000000000
        0.000000000074429
        0.000000011058497
        0.000000026972894
       -0.000000029892208
       -0.000000013916369
       -0.000000005498282
        0.000000000000000
        0.000000000000000
        0.000000000000000
       -0.000000000117808
        0.000000010162561
        0.000000051724047
        0.000000000070820
       -0.000000051807163
       -0.000000010241296
        0.000000000112932
        0.000000000000000
        0.000000000000000
        0.000000000000000
        0.000000005459863
        0.000000013880076
        0.000000029931855
       -0.000000026988557
       -0.000000011125023
       -0.000000000080658
        0.000000000000000
        0.000000000000000
        0.000000000000000
        0.000000000000000
        0.000000006270046
        0.000000002818092
       -0.000000001460368
       -0.000000004593303
        0.000000000000000
        0.000000000000000
        0.000000000000000
        0.000000000000000
        0.000000000000000
        0.000000000000000
        0.000000002001557
       -0.000000001804318
        0.000000000000000
        0.000000000000000
        0.000000000000000
        0.000000000000000
        0.000000000000000
        0.000000000000000
        0.000000000000000
        0.000000000000000
        0.000000000000000
        0.000000000000000
        0.000000000000000
        0.000000000000000
        0.000000000000000
        0.000000000000000
        0.000000000000000
        0.000000000000000
        0.000000000000000
        0.000000000000000
        0.000000000000000
        0.000000000000000
        0.000000000000000
        0.000000000000000
        0.000000000000000
        0.000000000000000
        0.000000000000000
        0.000000000000000
        0.000000000000000
        0.000000000000000
        0.000000000000000
        0.000000000000000
        0.000000000000000
        0.000000000000000
        0.000000000000000
        0.000000000000000
        0.000000000000000
        0.000000000000000
        0.000000000000000
        0.000000000000000
        0.000000000000000
        0.000000000000000
        0.000000000000000
        0.000000000000000
        0.000000002356779
       -0.000000003649722
        0.000000000000000
        0.000000000000000
        0.000000000000000
        0.000000000000000
        0.000000000000000
        0.000000000000000
        0.000000000000000
        0.000000003042082
        0.000000000006681
       -0.000000003044440
        0.000000000000000
        0.000000000000000
        0.000000000000000
        0.000000000000000
        0.000000000000000
        0.000000000000000
        0.000000000000000
        0.000000003657501
       -0.000000002350837
        0.000000000000000
        0.000000000000000
        0.000000000000000
        0.000000000000000
        0.000000000000000
        0.000000000000000
        0.000000000000000
        0.000000000000000
        0.000000000000000
        0.000000000000000
        0.000000000000000
        0.000000000000000
        0.000000000000000
        0.000000000000000
        0.000000000000000
        0.000000000000000
        0.000000000000000
        0.000000000000000
        0.000000000000000
        0.000000000000000
        0.000000000000000
        0.000000000000000
        0.000000000000000
        0.000000000000000
        0.000000000000000
        0.000000000000000
        0.000000000000000
        0.000000000000000
        0.000000000000000
        0.000000000000000
END_DATAGRID_3D
END_BLOCK_DATAGRID_3D
