ATOMS
         C    7.558905    7.558905    7.558905
         H    8.755769    8.755769    8.755769
         H    6.362040    6.362040    8.755769
         H    8.755769    6.362040    6.362040
         H    6.362040    8.755769    6.362040
BEGIN_BLOCK_DATAGRID_3D
units: coords = b, function = sqrt(b^-3)
BEGIN_DATAGRID_3D_function
      9      9      9
0.0 0.0 0.0
   15.117809    0.000000    0.000000
    0.000000   15.117809    0.000000
    0.000000    0.000000   15.117809
        0.000000000000000
        0.000000000000000
        0.000000000000000
        0.000000000000000
        0.000000000000000
        0.000000000000000
        0.000000000000000
        0.000000000000000
        0.000000000000000
        0.000000000000000
        0.000000000000000
        0.000000000000000
        0.000000000000000
        0.000000000000000
        0.000000000000000
        0.000000000000000
        0.000000000000000
        0.000000000000000
        0.000000000000000
        0.000000000000000
        0.000000000000000
        0.000000000000000
        0.000000000000000
        0.000000000000000
        0.000000000000000
        0.000000000000000
        0.000000000000000
        0.000000000000000
        0.000000000000000
        0.000000000000000
        0.000000000000000
       -0.001044668738072
       -0.001009474097407
        0.000000000000000
        0.000000000000000
        0.000000000000000
        0.000000000000000
        0.000000000000000
        0.000000000000000
       -0.000626694383506
       -0.001219016653514
       -0.001008173658388
        0.000000000000000
        0.000000000000000
        0.000000000000000
        0.000000000000000
        0.000000000000000
        0.000000000000000
       -0.000383959137222
       -0.000590674921114
        0.000000000000000
        0.000000000000000
        0.000000000000000
        0.000000000000000
        0.000000000000000
        0.000000000000000
        0.000000000000000
        0.000000000000000
        0.000000000000000
        0.000000000000000
        0.000000000000000
        0.000000000000000
        0.000000000000000
        0.000000000000000
        0.000000000000000
        0.000000000000000
        0.000000000000000
        0.000000000000000
        0.000000000000000
        0.000000000000000
        0.000000000000000
        0.000000000000000
        0.000000000000000
        0.000000000000000
        0.000000000000000
        0.000000000000000
        0.000000000000000
        0.000000000000000
        0.000000000000000
        0.000000000000000
        0.000000000000000
        0.000000000000000
        0.000000000000000
        0.000000000000000
        0.000000000000000
        0.000000000000000
        0.000000000000000
        0.000000000000000
        0.000000000000000
        0.000000000000000
        0.000000000000000
        0.000000000000000
        0.000000000000000
        0.000000000000000
       -0.001094399201216
       -0.001097928827188
        0.000000000000000
        0.000000000000000
        0.000000000000000
        0.000000000000000
        0.000000000000000
        0.000000000000000
       -0.001871670745116
       -0.003699697290480
       -0.003689062729193
       -0.001861477180013
        0.000000000000000
        0.000000000000000
        0.000000000000000
        0.000000000000000
       -0.001005261637876
       -0.003690259608755
       -0.007028446837152
       -0.006841377892134
       -0.003550447201129
       -0.001021258071799
        0.000000000000000
        0.000000000000000
       -0.000095799795524
       -0.000977841617523
       -0.003712825326172
       -0.007073635355242
       -0.006644538026890
       -0.003365146173820
       -0.000972722954072
        0.000000000000000
        0.000000000000000
        0.000021909343556
       -0.000263494824313
       -0.001574215193872
       -0.003336409848955
       -0.003163967344544
       -0.001568720538653
        0.000000000000000
        0.000000000000000
        0.000000000000000
        0.000000000000000
        0.000093577369690
       -0.000132512728653
       -0.000655200411825
       -0.000707344280982
        0.000000000000000
        0.000000000000000
        0.000000000000000
        0.000000000000000
        0.000000000000000
        0.000000000000000
        0.000093266343237
        0.000020195226182
        0.000000000000000
        0.000000000000000
        0.000000000000000
        0.000000000000000
        0.000000000000000
        0.000000000000000
        0.000000000000000
        0.000000000000000
        0.000000000000000
        0.000000000000000
        0.000000000000000
        0.000000000000000
        0.000000000000000
        0.000000000000000
        0.000000000000000
        0.000000000000000
        0.000000000000000
        0.000000000000000
        0.000000000000000
        0.000000000000000
        0.000000000000000
        0.000000000000000
        0.000000000000000
        0.000000000000000
        0.000000000000000
       -0.001812827505401
       -0.003615653560630
       -0.003626778679757
       -0.001835289301103
        0.000000000000000
        0.000000000000000
        0.000000000000000
        0.000000000000000
       -0.001610103688902
       -0.006566458160754
       -0.013601830367249
       -0.013799210244673
       -0.006715689719971
       -0.001766347313729
        0.000000000000000
        0.000000000000000
       -0.000218523222563
       -0.002780080739723
       -0.012980402932857
       -0.031207448001419
       -0.031322379774420
       -0.013186368625588
       -0.003327628772456
        0.000000000000000
        0.000000000000000
        0.000149366257406
       -0.001579344257534
       -0.011942126932105
       -0.032384247969191
       -0.028777510617121
       -0.011972456950918
       -0.003068677179446
        0.000000000000000
        0.000000000000000
        0.000575227884739
        0.001079419003264
       -0.001199224445395
       -0.009542107684875
       -0.010125310659179
       -0.005005164885461
       -0.001363259407885
        0.000000000000000
        0.000000000000000
        0.000447592681566
        0.001291585316561
        0.001672500551319
        0.000009399915414
       -0.001239395593216
       -0.000874396931625
        0.000000000000000
        0.000000000000000
        0.000000000000000
        0.000000000000000
        0.000511352016202
        0.000856634384553
        0.000672933622647
        0.000218847017776
        0.000000000000000
        0.000000000000000
        0.000000000000000
        0.000000000000000
        0.000000000000000
        0.000000000000000
        0.000000000000000
        0.000000000000000
        0.000000000000000
        0.000000000000000
        0.000000000000000
        0.000000000000000
        0.000000000000000
        0.000000000000000
        0.000000000000000
        0.000000000000000
       -0.000971611051336
       -0.000951993057410
        0.000000000000000
        0.000000000000000
        0.000000000000000
        0.000000000000000
        0.000000000000000
       -0.000875660101445
       -0.003385482525989
       -0.006620960671278
       -0.006554280628578
       -0.003435544675612
       -0.000992414434618
        0.000000000000000
        0.000000000000000
       -0.000147743340502
       -0.002471986143247
       -0.012176485288711
       -0.030047486061487
       -0.030605409204435
       -0.012945915463189
       -0.003274997786323
        0.000000000000000
        0.000000000000000
        0.000377785587118
       -0.002263874203289
       -0.024468190994440
       -0.088072021214125
       -0.093051378876749
       -0.028823612840880
       -0.005820974635452
       -0.000803788799129
        0.000354508270348
        0.001746485895046
        0.003563046334483
       -0.012684675202382
       -0.085900222635198
       -0.076787991282148
       -0.024751591888958
       -0.005213962105593
       -0.000749504392606
        0.000389582619460
        0.002287537779348
        0.008415790108549
        0.017815485561789
       -0.001498528197548
       -0.013371272090913
       -0.007348146775650
       -0.002106312624544
        0.000000000000000
        0.000000000000000
        0.001419658844514
        0.004913796922164
        0.010172635743618
        0.008784540289670
        0.002524660091085
       -0.000182769936333
       -0.000261560565501
        0.000000000000000
        0.000000000000000
        0.000484620269510
        0.001570323352483
        0.002984159367470
        0.003102318651878
        0.001627850770512
        0.000459610123184
        0.000000000000000
        0.000000000000000
        0.000000000000000
        0.000000000000000
        0.000000000000000
        0.000527796759872
        0.000565835897376
        0.000000000000000
        0.000000000000000
        0.000000000000000
        0.000000000000000
        0.000000000000000
        0.000000000000000
        0.000000000000000
       -0.000519345561672
       -0.001073814942899
       -0.000920701214513
        0.000000000000000
        0.000000000000000
        0.000000000000000
        0.000000000000000
       -0.000014186351960
       -0.000671336890128
       -0.003034260802694
       -0.006231088341859
       -0.006088179013455
       -0.003152403482265
       -0.000926044149747
        0.000000000000000
        0.000000000000000
        0.000371942523230
       -0.000600483308653
       -0.009214406824939
       -0.028526056196122
       -0.026648087567948
       -0.011330410066619
       -0.002939933795849
        0.000000000000000
        0.000388859829704
        0.002017920813788
        0.005130463697818
       -0.006568379517331
       -0.075664962882968
       -0.072221538036970
       -0.023782142260263
       -0.005065027933833
       -0.000735120721054
        0.000726611130478
        0.004200061318248
        0.019150539098513
        0.050788219426916
       -0.000044503742738
       -0.050478272128042
       -0.019021088639626
       -0.004135118168623
       -0.000709610589471
        0.000585314383600
        0.004137927403700
        0.018984996044805
        0.059583382069707
        0.075764926376441
        0.019573621590099
       -0.000144599340181
       -0.000993278488119
       -0.000217571230982
        0.000000000000000
        0.002214850433848
        0.008654167098317
        0.021807156151889
        0.028558497894896
        0.014152515334687
        0.003358553322650
        0.000394058675927
        0.000000000000000
        0.000000000000000
        0.000652602666533
        0.002416651926816
        0.005118787999506
        0.006235537071835
        0.004021565075218
        0.001427970973979
        0.000297542555139
        0.000000000000000
        0.000000000000000
        0.000000000000000
        0.000000000000000
        0.000760196941136
        0.001074392470386
        0.000681452010486
        0.000000000000000
        0.000000000000000
        0.000000000000000
        0.000000000000000
        0.000000000000000
        0.000000000000000
       -0.000275250583492
       -0.000468908886429
        0.000000000000000
        0.000000000000000
        0.000000000000000
        0.000000000000000
        0.000000000000000
        0.000113462993475
        0.000079049778150
       -0.000856089669112
       -0.002509206030558
       -0.002652876458118
       -0.001391626850302
        0.000000000000000
        0.000000000000000
        0.000000000000000
        0.000855676351378
        0.002292222928479
        0.001972506823239
       -0.005845162649323
       -0.008178350051127
       -0.004386095828932
       -0.001244964338605
        0.000000000000000
        0.000441007487447
        0.002719144454685
        0.010869311780249
        0.026825702934196
        0.009185310052387
       -0.008863630670730
       -0.006205089902883
       -0.001899767168632
        0.000000000000000
        0.000619665942956
        0.004409362322443
        0.020552413408140
        0.065699677754758
        0.086000186128670
        0.024140074835277
        0.000824850288514
       -0.000844344316359
       -0.000203187559431
        0.000000000000000
        0.003692292425000
        0.015945901225623
        0.046878637239101
        0.080545334634741
        0.048716696238757
        0.009691627592234
        0.000894154225845
       -0.000008621299346
        0.000000000000000
        0.001677759564424
        0.007092254289807
        0.017881483255227
        0.027151552644403
        0.018548732371914
        0.005811520634811
        0.001035786933964
        0.000000000000000
        0.000000000000000
        0.000000000000000
        0.001818146162559
        0.004420646983168
        0.006034933387490
        0.004443335648171
        0.001805762058782
        0.000403673788408
        0.000000000000000
        0.000000000000000
        0.000000000000000
        0.000000000000000
        0.000000000000000
        0.000875389616027
        0.000700965119101
        0.000000000000000
        0.000000000000000
        0.000000000000000
        0.000000000000000
        0.000000000000000
        0.000000000000000
        0.000000000000000
        0.000000000000000
        0.000000000000000
        0.000000000000000
        0.000000000000000
        0.000000000000000
        0.000000000000000
        0.000000000000000
        0.000279836760466
        0.000262413641520
       -0.000220335358060
       -0.000459599171331
        0.000000000000000
        0.000000000000000
        0.000000000000000
        0.000000000000000
        0.000607806835073
        0.001945392346635
        0.003125639481132
        0.001629580654672
       -0.000312542897281
       -0.000580103193772
        0.000000000000000
        0.000000000000000
        0.000000000000000
        0.001700107311153
        0.006126600847379
        0.013344367012251
        0.012481485325222
        0.004471620699137
        0.000436299120197
       -0.000143265496220
        0.000000000000000
        0.000000000000000
        0.002437426699673
        0.009633028047198
        0.024534876259055
        0.032416689667964
        0.016281938383859
        0.004000600206948
        0.000522802059525
        0.000000000000000
        0.000000000000000
        0.001748539446485
        0.007400348886283
        0.018685400899373
        0.028311514584335
        0.019265702941898
        0.006051973797210
        0.001088417920097
        0.000000000000000
        0.000000000000000
        0.000000000000000
        0.003080642912935
        0.008134743037432
        0.011977799972834
        0.009037350931280
        0.003514230566863
        0.000727369293336
        0.000000000000000
        0.000000000000000
        0.000000000000000
        0.000000000000000
        0.002056068348199
        0.003166291070754
        0.002516331767323
        0.001052714096788
        0.000000000000000
        0.000000000000000
        0.000000000000000
        0.000000000000000
        0.000000000000000
        0.000000000000000
        0.000000000000000
        0.000000000000000
        0.000000000000000
        0.000000000000000
        0.000000000000000
        0.000000000000000
        0.000000000000000
        0.000000000000000
        0.000000000000000
        0.000000000000000
        0.000000000000000
        0.000000000000000
        0.000000000000000
        0.000000000000000
        0.000000000000000
        0.000000000000000
        0.000000000000000
        0.000213489518770
        0.000148376867252
        0.000000000000000
        0.000000000000000
        0.000000000000000
        0.000000000000000
        0.000000000000000
        0.000000000000000
        0.000697611406978
        0.001251560754726
        0.001107798676412
        0.000466592127427
        0.000000000000000
        0.000000000000000
        0.000000000000000
        0.000000000000000
        0.000576173919429
        0.001912867954945
        0.003702284892230
        0.003929522470275
        0.002138941656938
        0.000636703811536
        0.000000000000000
        0.000000000000000
        0.000000000000000
        0.000734216110097
        0.002723156654211
        0.005797352522984
        0.007078084085218
        0.004577924088653
        0.001640713665534
        0.000344221359464
        0.000000000000000
        0.000000000000000
        0.000000000000000
        0.001947747698990
        0.004725424065934
        0.006442419553364
        0.004730432911727
        0.001920664584298
        0.000432517425590
        0.000000000000000
        0.000000000000000
        0.000000000000000
        0.000000000000000
        0.002114911587914
        0.003250334800603
        0.002578615816759
        0.001078901975697
        0.000000000000000
        0.000000000000000
        0.000000000000000
        0.000000000000000
        0.000000000000000
        0.000000000000000
        0.000926646871161
        0.000793000126126
        0.000000000000000
        0.000000000000000
        0.000000000000000
        0.000000000000000
        0.000000000000000
        0.000000000000000
        0.000000000000000
        0.000000000000000
        0.000000000000000
        0.000000000000000
        0.000000000000000
        0.000000000000000
        0.000000000000000
        0.000000000000000
        0.000000000000000
        0.000000000000000
        0.000000000000000
        0.000000000000000
        0.000000000000000
        0.000000000000000
        0.000000000000000
        0.000000000000000
        0.000000000000000
        0.000000000000000
        0.000000000000000
        0.000000000000000
        0.000000000000000
        0.000000000000000
        0.000000000000000
        0.000000000000000
        0.000000000000000
        0.000000000000000
        0.000000000000000
        0.000000000000000
        0.000000000000000
        0.000000000000000
        0.000000000000000
        0.000000000000000
        0.000000000000000
        0.000000000000000
        0.000000000000000
        0.000000000000000
        0.000636505313602
        0.000687601932062
        0.000000000000000
        0.000000000000000
        0.000000000000000
        0.000000000000000
        0.000000000000000
        0.000000000000000
        0.000000000000000
        0.000867545762970
        0.001219594181001
        0.000768924454361
        0.000000000000000
        0.000000000000000
        0.000000000000000
        0.000000000000000
        0.000000000000000
        0.000000000000000
        0.000000000000000
        0.000948447302763
        0.000758446159098
        0.000000000000000
        0.000000000000000
        0.000000000000000
        0.000000000000000
        0.000000000000000
        0.000000000000000
        0.000000000000000
        0.000000000000000
        0.000000000000000
        0.000000000000000
        0.000000000000000
        0.000000000000000
        0.000000000000000
        0.000000000000000
        0.000000000000000
        0.000000000000000
        0.000000000000000
        0.000000000000000
        0.000000000000000
        0.000000000000000
        0.000000000000000
        0.000000000000000
        0.000000000000000
        0.000000000000000
        0.000000000000000
        0.000000000000000
        0.000000000000000
        0.000000000000000
        0.000000000000000
        0.000000000000000
END_DATAGRID_3D
END_BLOCK_DATAGRID_3D
