ATOMS
         C    7.558905    7.558905    7.558905
         H    8.755769    8.755769    8.755769
         H    6.362040    6.362040    8.755769
         H    8.755769    6.362040    6.362040
         H    6.362040    8.755769    6.362040
BEGIN_BLOCK_DATAGRID_3D
units: coords = b, function = 1/hbar/H*b^-2
BEGIN_DATAGRID_3D_function
      9      9      9
0.0 0.0 0.0
   15.117809    0.000000    0.000000
    0.000000   15.117809    0.000000
    0.000000    0.000000   15.117809
        0.000000000000000
        0.000000000000000
        0.000000000000000
        0.000000000000000
        0.000000000000000
        0.000000000000000
        0.000000000000000
        0.000000000000000
        0.000000000000000
        0.000000000000000
        0.000000000000000
        0.000000000000000
        0.000000000000000
        0.000000000000000
        0.000000000000000
        0.000000000000000
        0.000000000000000
        0.000000000000000
        0.000000000000000
        0.000000000000000
        0.000000000000000
        0.000000000000000
        0.000000000000000
        0.000000000000000
        0.000000000000000
        0.000000000000000
        0.000000000000000
        0.000000000000000
        0.000000000000000
        0.000000000000000
        0.000000000000000
       -0.000000000004839
        0.000000000000410
        0.000000000000000
        0.000000000000000
        0.000000000000000
        0.000000000000000
        0.000000000000000
        0.000000000000000
        0.000000000000556
       -0.000000000015573
        0.000000000000410
        0.000000000000000
        0.000000000000000
        0.000000000000000
        0.000000000000000
        0.000000000000000
        0.000000000000000
        0.000000000000556
       -0.000000000005684
        0.000000000000000
        0.000000000000000
        0.000000000000000
        0.000000000000000
        0.000000000000000
        0.000000000000000
        0.000000000000000
        0.000000000000000
        0.000000000000000
        0.000000000000000
        0.000000000000000
        0.000000000000000
        0.000000000000000
        0.000000000000000
        0.000000000000000
        0.000000000000000
        0.000000000000000
        0.000000000000000
        0.000000000000000
        0.000000000000000
        0.000000000000000
        0.000000000000000
        0.000000000000000
        0.000000000000000
        0.000000000000000
        0.000000000000000
        0.000000000000000
        0.000000000000000
        0.000000000000000
        0.000000000000000
        0.000000000000000
        0.000000000000000
        0.000000000000000
        0.000000000000000
        0.000000000000000
        0.000000000000000
        0.000000000000000
        0.000000000000000
        0.000000000000000
        0.000000000000000
        0.000000000000000
        0.000000000000000
        0.000000000000000
        0.000000000000000
       -0.000000000009654
        0.000000000010297
        0.000000000000000
        0.000000000000000
        0.000000000000000
        0.000000000000000
        0.000000000000000
        0.000000000000000
       -0.000000000019495
       -0.000000000007865
        0.000000000007419
        0.000000000010581
        0.000000000000000
        0.000000000000000
        0.000000000000000
        0.000000000000000
       -0.000000000012386
       -0.000000000023740
        0.000000000015266
       -0.000000000014479
        0.000000000015413
       -0.000000000000106
        0.000000000000000
        0.000000000000000
       -0.000000000000017
       -0.000000000018739
        0.000000000007783
       -0.000000000011633
        0.000000000015042
       -0.000000000018045
       -0.000000000000106
        0.000000000000000
        0.000000000000000
       -0.000000000000017
        0.000000000014878
       -0.000000000019714
        0.000000000012258
       -0.000000000024266
       -0.000000000010429
        0.000000000000000
        0.000000000000000
        0.000000000000000
        0.000000000000000
        0.000000000008796
        0.000000000010086
       -0.000000000012741
       -0.000000000016988
        0.000000000000000
        0.000000000000000
        0.000000000000000
        0.000000000000000
        0.000000000000000
        0.000000000000000
        0.000000000008570
       -0.000000000010948
        0.000000000000000
        0.000000000000000
        0.000000000000000
        0.000000000000000
        0.000000000000000
        0.000000000000000
        0.000000000000000
        0.000000000000000
        0.000000000000000
        0.000000000000000
        0.000000000000000
        0.000000000000000
        0.000000000000000
        0.000000000000000
        0.000000000000000
        0.000000000000000
        0.000000000000000
        0.000000000000000
        0.000000000000000
        0.000000000000000
        0.000000000000000
        0.000000000000000
        0.000000000000000
        0.000000000000000
        0.000000000000000
       -0.000000000027655
        0.000000000009187
       -0.000000000006766
        0.000000000017891
        0.000000000000000
        0.000000000000000
        0.000000000000000
        0.000000000000000
       -0.000000000038155
        0.000000000007266
        0.000000000044189
       -0.000000000083821
       -0.000000000015462
        0.000000000004710
        0.000000000000000
        0.000000000000000
       -0.000000000005131
       -0.000000000019665
        0.000000000219475
       -0.000000000125377
       -0.000000000363350
       -0.000000000061445
        0.000000000004666
        0.000000000000000
        0.000000000000000
       -0.000000000008117
        0.000000000044866
       -0.000000000139688
       -0.000000000363948
       -0.000000000142089
        0.000000000056602
       -0.000000000007468
        0.000000000000000
        0.000000000000000
        0.000000000004101
       -0.000000000073709
       -0.000000000408072
       -0.000000000153360
        0.000000000215712
       -0.000000000019378
       -0.000000000003198
        0.000000000000000
        0.000000000000000
        0.000000000002899
       -0.000000000008053
       -0.000000000117471
        0.000000000054166
        0.000000000003821
       -0.000000000029632
        0.000000000000000
        0.000000000000000
        0.000000000000000
        0.000000000000000
        0.000000000014377
       -0.000000000002859
        0.000000000003558
       -0.000000000024666
        0.000000000000000
        0.000000000000000
        0.000000000000000
        0.000000000000000
        0.000000000000000
        0.000000000000000
        0.000000000000000
        0.000000000000000
        0.000000000000000
        0.000000000000000
        0.000000000000000
        0.000000000000000
        0.000000000000000
        0.000000000000000
        0.000000000000000
        0.000000000000000
       -0.000000000012983
        0.000000000008327
        0.000000000000000
        0.000000000000000
        0.000000000000000
        0.000000000000000
        0.000000000000000
       -0.000000000016503
       -0.000000000046836
       -0.000000000134288
        0.000000000076092
        0.000000000070400
       -0.000000000004966
        0.000000000000000
        0.000000000000000
        0.000000000003693
       -0.000000000087257
        0.000000001115690
        0.000000002087919
       -0.000000001289096
       -0.000000001292695
        0.000000000086703
        0.000000000000000
        0.000000000000000
       -0.000000000077783
        0.000000000991813
        0.000000003574667
       -0.000000006291379
       -0.000000011756973
       -0.000000000685403
        0.000000000056680
        0.000000000000665
        0.000000000000812
       -0.000000000168954
        0.000000002216599
       -0.000000005952008
       -0.000000014667750
       -0.000000006626608
        0.000000002218137
       -0.000000000161933
        0.000000000000665
        0.000000000000812
        0.000000000051301
       -0.000000000730970
       -0.000000011136029
       -0.000000005388597
        0.000000003722222
        0.000000000988915
       -0.000000000078500
        0.000000000000000
        0.000000000000000
        0.000000000089173
       -0.000000001324791
       -0.000000001527457
        0.000000002138753
        0.000000001132821
       -0.000000000090919
        0.000000000006175
        0.000000000000000
        0.000000000000000
       -0.000000000006693
        0.000000000074269
        0.000000000071550
       -0.000000000136739
       -0.000000000051461
       -0.000000000013516
        0.000000000000000
        0.000000000000000
        0.000000000000000
        0.000000000000000
        0.000000000000000
        0.000000000010067
       -0.000000000012922
        0.000000000000000
        0.000000000000000
        0.000000000000000
        0.000000000000000
        0.000000000000000
        0.000000000000000
        0.000000000000000
       -0.000000000004767
       -0.000000000002429
        0.000000000004706
        0.000000000000000
        0.000000000000000
        0.000000000000000
        0.000000000000000
        0.000000000002918
       -0.000000000018243
       -0.000000000260994
        0.000000000024877
        0.000000000263529
        0.000000000023857
       -0.000000000001618
        0.000000000000000
        0.000000000000000
       -0.000000000031549
        0.000000000453272
        0.000000004987179
       -0.000000000464780
       -0.000000005041199
       -0.000000000463443
        0.000000000036513
        0.000000000000000
        0.000000000001799
       -0.000000000256577
        0.000000004284218
        0.000000021395494
       -0.000000002080131
       -0.000000022318131
       -0.000000004261453
        0.000000000260279
       -0.000000000000958
        0.000000000000000
        0.000000000000000
       -0.000000000000000
        0.000000000000000
        0.000000000000000
       -0.000000000000000
        0.000000000000000
        0.000000000000000
       -0.000000000000000
       -0.000000000001799
        0.000000000256577
       -0.000000004284218
       -0.000000021395494
        0.000000002080131
        0.000000022318131
        0.000000004261453
       -0.000000000260279
        0.000000000000958
        0.000000000000000
        0.000000000031549
       -0.000000000453272
       -0.000000004987179
        0.000000000464780
        0.000000005041199
        0.000000000463443
       -0.000000000036513
        0.000000000000000
        0.000000000000000
       -0.000000000002918
        0.000000000018243
        0.000000000260994
       -0.000000000024877
       -0.000000000263529
       -0.000000000023857
        0.000000000001618
        0.000000000000000
        0.000000000000000
        0.000000000000000
        0.000000000000000
        0.000000000004767
        0.000000000002429
       -0.000000000004706
        0.000000000000000
        0.000000000000000
        0.000000000000000
        0.000000000000000
        0.000000000000000
        0.000000000000000
       -0.000000000010067
        0.000000000012922
        0.000000000000000
        0.000000000000000
        0.000000000000000
        0.000000000000000
        0.000000000000000
        0.000000000006693
       -0.000000000074269
       -0.000000000071550
        0.000000000136739
        0.000000000051461
        0.000000000013516
        0.000000000000000
        0.000000000000000
        0.000000000000000
       -0.000000000089173
        0.000000001324791
        0.000000001527457
       -0.000000002138753
       -0.000000001132821
        0.000000000090919
       -0.000000000006175
        0.000000000000000
       -0.000000000000812
       -0.000000000051301
        0.000000000730970
        0.000000011136029
        0.000000005388597
       -0.000000003722222
       -0.000000000988915
        0.000000000078500
        0.000000000000000
       -0.000000000000812
        0.000000000168954
       -0.000000002216599
        0.000000005952008
        0.000000014667750
        0.000000006626608
       -0.000000002218137
        0.000000000161933
       -0.000000000000665
        0.000000000000000
        0.000000000077783
       -0.000000000991813
       -0.000000003574667
        0.000000006291379
        0.000000011756973
        0.000000000685403
       -0.000000000056680
       -0.000000000000665
        0.000000000000000
       -0.000000000003693
        0.000000000087257
       -0.000000001115690
       -0.000000002087919
        0.000000001289096
        0.000000001292695
       -0.000000000086703
        0.000000000000000
        0.000000000000000
        0.000000000000000
        0.000000000016503
        0.000000000046836
        0.000000000134288
       -0.000000000076092
       -0.000000000070400
        0.000000000004966
        0.000000000000000
        0.000000000000000
        0.000000000000000
        0.000000000000000
        0.000000000000000
        0.000000000012983
       -0.000000000008327
        0.000000000000000
        0.000000000000000
        0.000000000000000
        0.000000000000000
        0.000000000000000
        0.000000000000000
        0.000000000000000
        0.000000000000000
        0.000000000000000
        0.000000000000000
        0.000000000000000
        0.000000000000000
        0.000000000000000
        0.000000000000000
       -0.000000000014377
        0.000000000002859
       -0.000000000003558
        0.000000000024666
        0.000000000000000
        0.000000000000000
        0.000000000000000
        0.000000000000000
       -0.000000000002899
        0.000000000008053
        0.000000000117471
       -0.000000000054166
       -0.000000000003821
        0.000000000029632
        0.000000000000000
        0.000000000000000
        0.000000000000000
       -0.000000000004101
        0.000000000073709
        0.000000000408072
        0.000000000153360
       -0.000000000215712
        0.000000000019378
        0.000000000003198
        0.000000000000000
        0.000000000000000
        0.000000000008117
       -0.000000000044866
        0.000000000139688
        0.000000000363948
        0.000000000142089
       -0.000000000056602
        0.000000000007468
        0.000000000000000
        0.000000000000000
        0.000000000005131
        0.000000000019665
       -0.000000000219475
        0.000000000125377
        0.000000000363350
        0.000000000061445
       -0.000000000004666
        0.000000000000000
        0.000000000000000
        0.000000000000000
        0.000000000038155
       -0.000000000007266
       -0.000000000044189
        0.000000000083821
        0.000000000015462
       -0.000000000004710
        0.000000000000000
        0.000000000000000
        0.000000000000000
        0.000000000000000
        0.000000000027655
       -0.000000000009187
        0.000000000006766
       -0.000000000017891
        0.000000000000000
        0.000000000000000
        0.000000000000000
        0.000000000000000
        0.000000000000000
        0.000000000000000
        0.000000000000000
        0.000000000000000
        0.000000000000000
        0.000000000000000
        0.000000000000000
        0.000000000000000
        0.000000000000000
        0.000000000000000
        0.000000000000000
        0.000000000000000
        0.000000000000000
        0.000000000000000
        0.000000000000000
        0.000000000000000
        0.000000000000000
        0.000000000000000
        0.000000000000000
       -0.000000000008570
        0.000000000010948
        0.000000000000000
        0.000000000000000
        0.000000000000000
        0.000000000000000
        0.000000000000000
        0.000000000000000
       -0.000000000008796
       -0.000000000010086
        0.000000000012741
        0.000000000016988
        0.000000000000000
        0.000000000000000
        0.000000000000000
        0.000000000000000
        0.000000000000017
       -0.000000000014878
        0.000000000019714
       -0.000000000012258
        0.000000000024266
        0.000000000010429
        0.000000000000000
        0.000000000000000
        0.000000000000000
        0.000000000000017
        0.000000000018739
       -0.000000000007783
        0.000000000011633
       -0.000000000015042
        0.000000000018045
        0.000000000000106
        0.000000000000000
        0.000000000000000
        0.000000000000000
        0.000000000012386
        0.000000000023740
       -0.000000000015266
        0.000000000014479
       -0.000000000015413
        0.000000000000106
        0.000000000000000
        0.000000000000000
        0.000000000000000
        0.000000000000000
        0.000000000019495
        0.000000000007865
       -0.000000000007419
       -0.000000000010581
        0.000000000000000
        0.000000000000000
        0.000000000000000
        0.000000000000000
        0.000000000000000
        0.000000000000000
        0.000000000009654
       -0.000000000010297
        0.000000000000000
        0.000000000000000
        0.000000000000000
        0.000000000000000
        0.000000000000000
        0.000000000000000
        0.000000000000000
        0.000000000000000
        0.000000000000000
        0.000000000000000
        0.000000000000000
        0.000000000000000
        0.000000000000000
        0.000000000000000
        0.000000000000000
        0.000000000000000
        0.000000000000000
        0.000000000000000
        0.000000000000000
        0.000000000000000
        0.000000000000000
        0.000000000000000
        0.000000000000000
        0.000000000000000
        0.000000000000000
        0.000000000000000
        0.000000000000000
        0.000000000000000
        0.000000000000000
        0.000000000000000
        0.000000000000000
        0.000000000000000
        0.000000000000000
        0.000000000000000
        0.000000000000000
        0.000000000000000
        0.000000000000000
        0.000000000000000
        0.000000000000000
        0.000000000000000
        0.000000000000000
        0.000000000000000
       -0.000000000000556
        0.000000000005684
        0.000000000000000
        0.000000000000000
        0.000000000000000
        0.000000000000000
        0.000000000000000
        0.000000000000000
        0.000000000000000
       -0.000000000000556
        0.000000000015573
       -0.000000000000410
        0.000000000000000
        0.000000000000000
        0.000000000000000
        0.000000000000000
        0.000000000000000
        0.000000000000000
        0.000000000000000
        0.000000000004839
       -0.000000000000410
        0.000000000000000
        0.000000000000000
        0.000000000000000
        0.000000000000000
        0.000000000000000
        0.000000000000000
        0.000000000000000
        0.000000000000000
        0.000000000000000
        0.000000000000000
        0.000000000000000
        0.000000000000000
        0.000000000000000
        0.000000000000000
        0.000000000000000
        0.000000000000000
        0.000000000000000
        0.000000000000000
        0.000000000000000
        0.000000000000000
        0.000000000000000
        0.000000000000000
        0.000000000000000
        0.000000000000000
        0.000000000000000
        0.000000000000000
        0.000000000000000
        0.000000000000000
        0.000000000000000
        0.000000000000000
END_DATAGRID_3D
END_BLOCK_DATAGRID_3D
