ATOMS
         C    7.558905    7.558905    7.558905
         H    8.755769    8.755769    8.755769
         H    6.362040    6.362040    8.755769
         H    8.755769    6.362040    6.362040
         H    6.362040    8.755769    6.362040
BEGIN_BLOCK_DATAGRID_3D
units: coords = b, function = sqrt(b^-3)
BEGIN_DATAGRID_3D_function
      9      9      9
0.0 0.0 0.0
   15.117809    0.000000    0.000000
    0.000000   15.117809    0.000000
    0.000000    0.000000   15.117809
        0.000000000000000
        0.000000000000000
        0.000000000000000
        0.000000000000000
        0.000000000000000
        0.000000000000000
        0.000000000000000
        0.000000000000000
        0.000000000000000
        0.000000000000000
        0.000000000000000
        0.000000000000000
        0.000000000000000
        0.000000000000000
        0.000000000000000
        0.000000000000000
        0.000000000000000
        0.000000000000000
        0.000000000000000
        0.000000000000000
        0.000000000000000
        0.000000000000000
        0.000000000000000
        0.000000000000000
        0.000000000000000
        0.000000000000000
        0.000000000000000
        0.000000000000000
        0.000000000000000
        0.000000000000000
        0.000000000000000
       -0.000151264396863
       -0.000146946742421
        0.000000000000000
        0.000000000000000
        0.000000000000000
        0.000000000000000
        0.000000000000000
        0.000000000000000
       -0.000090127097914
       -0.000176378418443
       -0.000146739672768
        0.000000000000000
        0.000000000000000
        0.000000000000000
        0.000000000000000
        0.000000000000000
        0.000000000000000
       -0.000055209377194
       -0.000085367075848
        0.000000000000000
        0.000000000000000
        0.000000000000000
        0.000000000000000
        0.000000000000000
        0.000000000000000
        0.000000000000000
        0.000000000000000
        0.000000000000000
        0.000000000000000
        0.000000000000000
        0.000000000000000
        0.000000000000000
        0.000000000000000
        0.000000000000000
        0.000000000000000
        0.000000000000000
        0.000000000000000
        0.000000000000000
        0.000000000000000
        0.000000000000000
        0.000000000000000
        0.000000000000000
        0.000000000000000
        0.000000000000000
        0.000000000000000
        0.000000000000000
        0.000000000000000
        0.000000000000000
        0.000000000000000
        0.000000000000000
        0.000000000000000
        0.000000000000000
        0.000000000000000
        0.000000000000000
        0.000000000000000
        0.000000000000000
        0.000000000000000
        0.000000000000000
        0.000000000000000
        0.000000000000000
        0.000000000000000
        0.000000000000000
        0.000000000000000
       -0.000158469899730
       -0.000159849364891
        0.000000000000000
        0.000000000000000
        0.000000000000000
        0.000000000000000
        0.000000000000000
        0.000000000000000
       -0.000269162676855
       -0.000535390435510
       -0.000537408324547
       -0.000272902720400
        0.000000000000000
        0.000000000000000
        0.000000000000000
        0.000000000000000
       -0.000143595321950
       -0.000530504876315
       -0.001017033108273
       -0.000996614515588
       -0.000520705280614
       -0.000150760719932
        0.000000000000000
        0.000000000000000
       -0.000013605131764
       -0.000139687499485
       -0.000533766733890
       -0.001023504138605
       -0.000967861070340
       -0.000493523612026
       -0.000143592726930
        0.000000000000000
        0.000000000000000
        0.000003092262491
       -0.000037708687190
       -0.000226397407712
       -0.000482777663324
       -0.000460869897653
       -0.000229973426905
        0.000000000000000
        0.000000000000000
        0.000000000000000
        0.000000000000000
        0.000013319521561
       -0.000019133916566
       -0.000094859229842
       -0.000102987526235
        0.000000000000000
        0.000000000000000
        0.000000000000000
        0.000000000000000
        0.000000000000000
        0.000000000000000
        0.000013386378054
        0.000002901623857
        0.000000000000000
        0.000000000000000
        0.000000000000000
        0.000000000000000
        0.000000000000000
        0.000000000000000
        0.000000000000000
        0.000000000000000
        0.000000000000000
        0.000000000000000
        0.000000000000000
        0.000000000000000
        0.000000000000000
        0.000000000000000
        0.000000000000000
        0.000000000000000
        0.000000000000000
        0.000000000000000
        0.000000000000000
        0.000000000000000
        0.000000000000000
        0.000000000000000
        0.000000000000000
        0.000000000000000
        0.000000000000000
       -0.000260704734312
       -0.000523234827228
       -0.000528339031892
       -0.000269064499366
        0.000000000000000
        0.000000000000000
        0.000000000000000
        0.000000000000000
       -0.000230026416952
       -0.000944252706452
       -0.001968505912321
       -0.002010105988012
       -0.000984577132869
       -0.000260744944641
        0.000000000000000
        0.000000000000000
       -0.000031041696286
       -0.000397191293345
       -0.001867592946940
       -0.004517086692985
       -0.004561642742727
       -0.001932198244628
       -0.000491319787673
        0.000000000000000
        0.000000000000000
        0.000021105018435
       -0.000225946807760
       -0.001719286544403
       -0.004686721093769
       -0.004189748683513
       -0.001754538174868
       -0.000453097150576
        0.000000000000000
        0.000000000000000
        0.000081468098649
        0.000153860774280
       -0.000173776143846
       -0.001381557554739
       -0.001474645951168
       -0.000733839771495
       -0.000201241861491
        0.000000000000000
        0.000000000000000
        0.000063419096770
        0.000184182862960
        0.000239850702164
        0.000000874787934
       -0.000180732630756
       -0.000128220544859
        0.000000000000000
        0.000000000000000
        0.000000000000000
        0.000000000000000
        0.000072947716562
        0.000122961235049
        0.000097217468342
        0.000031798423456
        0.000000000000000
        0.000000000000000
        0.000000000000000
        0.000000000000000
        0.000000000000000
        0.000000000000000
        0.000000000000000
        0.000000000000000
        0.000000000000000
        0.000000000000000
        0.000000000000000
        0.000000000000000
        0.000000000000000
        0.000000000000000
        0.000000000000000
        0.000000000000000
       -0.000140688513473
       -0.000138582044232
        0.000000000000000
        0.000000000000000
        0.000000000000000
        0.000000000000000
        0.000000000000000
       -0.000125097951263
       -0.000486721876704
       -0.000958099842769
       -0.000954814788128
       -0.000503860848703
       -0.000146503148950
        0.000000000000000
        0.000000000000000
       -0.000021009353894
       -0.000353216173428
       -0.001752057770800
       -0.004349334556300
       -0.004457309996494
       -0.001896963102920
       -0.000483550425871
        0.000000000000000
        0.000000000000000
        0.000053477875065
       -0.000323960853452
       -0.003525767229444
       -0.012750666910279
       -0.013548184521610
       -0.004219169166564
       -0.000859521296520
       -0.000119560274636
        0.000049801615405
        0.000247441372676
        0.000508297308954
       -0.001835264352147
       -0.012432849444940
       -0.011176738502696
       -0.003623358219164
       -0.000769984419411
       -0.000111464280691
        0.000054796476872
        0.000324062353157
        0.001201999639821
        0.002556127312687
       -0.000221974799833
       -0.001948696945271
       -0.001076874710731
       -0.000311019147705
        0.000000000000000
        0.000000000000000
        0.000201146392989
        0.000701244710616
        0.001460874844896
        0.001269155332403
        0.000366547243364
       -0.000027062403958
       -0.000038626318603
        0.000000000000000
        0.000000000000000
        0.000068675228702
        0.000223973493549
        0.000428509185880
        0.000448450684719
        0.000236865340244
        0.000067316161453
        0.000000000000000
        0.000000000000000
        0.000000000000000
        0.000000000000000
        0.000000000000000
        0.000075848873003
        0.000081743048079
        0.000000000000000
        0.000000000000000
        0.000000000000000
        0.000000000000000
        0.000000000000000
        0.000000000000000
        0.000000000000000
       -0.000074697328316
       -0.000155382643132
       -0.000134013258448
        0.000000000000000
        0.000000000000000
        0.000000000000000
        0.000000000000000
       -0.000002037537068
       -0.000095959128806
       -0.000436298411517
       -0.000901667699170
       -0.000886867192459
       -0.000462339815959
       -0.000136704518951
        0.000000000000000
        0.000000000000000
        0.000052645341052
       -0.000086188159249
       -0.001327233865676
       -0.004128819022506
       -0.003879994166388
       -0.001660477148419
       -0.000434092630377
        0.000000000000000
        0.000054637909888
        0.000285895432091
        0.000732350008192
       -0.000955709952169
       -0.010952845614712
       -0.010512977159512
       -0.003481470853955
       -0.000747989703207
       -0.000109331883734
        0.000102126153901
        0.000595156773671
        0.002737111611899
        0.007292205994496
        0.000000785552024
       -0.007353917431792
       -0.002783892586274
       -0.000610537611242
       -0.000105648153307
        0.000082374460185
        0.000586240734757
        0.002712520741873
        0.008564481588804
        0.010953171540963
        0.002839756210262
       -0.000022332670605
       -0.000146661989780
       -0.000032408109855
        0.000000000000000
        0.000313847949748
        0.001235301025870
        0.003133832630014
        0.004128881724072
        0.002058073827515
        0.000491695001705
        0.000058145985260
        0.000000000000000
        0.000000000000000
        0.000092500377352
        0.000344758257807
        0.000735220050758
        0.000901677150927
        0.000585410471211
        0.000209283854109
        0.000043908464863
        0.000000000000000
        0.000000000000000
        0.000000000000000
        0.000000000000000
        0.000109269353556
        0.000155383553241
        0.000099148788733
        0.000000000000000
        0.000000000000000
        0.000000000000000
        0.000000000000000
        0.000000000000000
        0.000000000000000
       -0.000039586767177
       -0.000067774854928
        0.000000000000000
        0.000000000000000
        0.000000000000000
        0.000000000000000
        0.000000000000000
        0.000016068526372
        0.000011159213717
       -0.000123261276822
       -0.000363175426419
       -0.000386475740232
       -0.000204025732842
        0.000000000000000
        0.000000000000000
        0.000000000000000
        0.000121210785233
        0.000327033770413
        0.000281881115687
       -0.000847139270248
       -0.001191412243210
       -0.000643121601266
       -0.000183787105892
        0.000000000000000
        0.000062031568173
        0.000385224240749
        0.001552706105607
        0.003850987109342
        0.001322283111556
       -0.001293437001721
       -0.000909456631585
       -0.000280526321238
        0.000000000000000
        0.000087210754668
        0.000624694794171
        0.002936573441111
        0.009444035988782
        0.012433175371190
        0.003503517553446
        0.000119554694604
       -0.000124667273575
       -0.000030275712898
        0.000000000000000
        0.000523192741161
        0.002276866413654
        0.006740679655768
        0.011650687462100
        0.007086741361379
        0.001417347473485
        0.000131918251802
       -0.000001298785103
        0.000000000000000
        0.000237830656577
        0.001012125115796
        0.002569997001867
        0.003927403826709
        0.002699759416484
        0.000851079504795
        0.000152878267955
        0.000000000000000
        0.000000000000000
        0.000000000000000
        0.000259510140973
        0.000635075984601
        0.000872839012319
        0.000646975317772
        0.000264704643807
        0.000059573557717
        0.000000000000000
        0.000000000000000
        0.000000000000000
        0.000000000000000
        0.000000000000000
        0.000126722063396
        0.000102012617079
        0.000000000000000
        0.000000000000000
        0.000000000000000
        0.000000000000000
        0.000000000000000
        0.000000000000000
        0.000000000000000
        0.000000000000000
        0.000000000000000
        0.000000000000000
        0.000000000000000
        0.000000000000000
        0.000000000000000
        0.000000000000000
        0.000039899460748
        0.000037582405999
       -0.000031990464352
       -0.000066944175306
        0.000000000000000
        0.000000000000000
        0.000000000000000
        0.000000000000000
        0.000086127653660
        0.000277485888826
        0.000448556588487
        0.000235100553152
       -0.000045855757240
       -0.000085106165436
        0.000000000000000
        0.000000000000000
        0.000000000000000
        0.000240889079573
        0.000874417706749
        0.001916532104429
        0.001803573616894
        0.000649780951321
        0.000063655766270
       -0.000021171563005
        0.000000000000000
        0.000000000000000
        0.000345388272365
        0.001375059674381
        0.003525885308741
        0.004686783795335
        0.002367828344640
        0.000585756028153
        0.000077150505459
        0.000000000000000
        0.000000000000000
        0.000247862998969
        0.001056100235713
        0.002685532178007
        0.004095155963393
        0.002804092162717
        0.000886314646504
        0.000160647629757
        0.000000000000000
        0.000000000000000
        0.000000000000000
        0.000439768170391
        0.001168941077312
        0.001732560120131
        0.001315851965240
        0.000515005394682
        0.000107341051744
        0.000000000000000
        0.000000000000000
        0.000000000000000
        0.000000000000000
        0.000295558230448
        0.000458013762659
        0.000366431123724
        0.000154287735477
        0.000000000000000
        0.000000000000000
        0.000000000000000
        0.000000000000000
        0.000000000000000
        0.000000000000000
        0.000000000000000
        0.000000000000000
        0.000000000000000
        0.000000000000000
        0.000000000000000
        0.000000000000000
        0.000000000000000
        0.000000000000000
        0.000000000000000
        0.000000000000000
        0.000000000000000
        0.000000000000000
        0.000000000000000
        0.000000000000000
        0.000000000000000
        0.000000000000000
        0.000000000000000
        0.000030660663001
        0.000021419920794
        0.000000000000000
        0.000000000000000
        0.000000000000000
        0.000000000000000
        0.000000000000000
        0.000000000000000
        0.000099527655750
        0.000179677557615
        0.000160086233831
        0.000067841774384
        0.000000000000000
        0.000000000000000
        0.000000000000000
        0.000000000000000
        0.000081651492583
        0.000272841394455
        0.000531645316769
        0.000568052921624
        0.000311259497665
        0.000093263855515
        0.000000000000000
        0.000000000000000
        0.000000000000000
        0.000104067972049
        0.000388486628486
        0.000832688373131
        0.001023513590362
        0.000666404349092
        0.000240467650177
        0.000050796672842
        0.000000000000000
        0.000000000000000
        0.000000000000000
        0.000278007511659
        0.000678858984212
        0.000931772277823
        0.000688775045231
        0.000281549075718
        0.000063831128699
        0.000000000000000
        0.000000000000000
        0.000000000000000
        0.000000000000000
        0.000304016172991
        0.000470169370942
        0.000375500416379
        0.000158125956512
        0.000000000000000
        0.000000000000000
        0.000000000000000
        0.000000000000000
        0.000000000000000
        0.000000000000000
        0.000134149680330
        0.000115429044437
        0.000000000000000
        0.000000000000000
        0.000000000000000
        0.000000000000000
        0.000000000000000
        0.000000000000000
        0.000000000000000
        0.000000000000000
        0.000000000000000
        0.000000000000000
        0.000000000000000
        0.000000000000000
        0.000000000000000
        0.000000000000000
        0.000000000000000
        0.000000000000000
        0.000000000000000
        0.000000000000000
        0.000000000000000
        0.000000000000000
        0.000000000000000
        0.000000000000000
        0.000000000000000
        0.000000000000000
        0.000000000000000
        0.000000000000000
        0.000000000000000
        0.000000000000000
        0.000000000000000
        0.000000000000000
        0.000000000000000
        0.000000000000000
        0.000000000000000
        0.000000000000000
        0.000000000000000
        0.000000000000000
        0.000000000000000
        0.000000000000000
        0.000000000000000
        0.000000000000000
        0.000000000000000
        0.000000000000000
        0.000091471483020
        0.000099335268998
        0.000000000000000
        0.000000000000000
        0.000000000000000
        0.000000000000000
        0.000000000000000
        0.000000000000000
        0.000000000000000
        0.000124699123153
        0.000176379328552
        0.000111875203052
        0.000000000000000
        0.000000000000000
        0.000000000000000
        0.000000000000000
        0.000000000000000
        0.000000000000000
        0.000000000000000
        0.000137297946787
        0.000110377315269
        0.000000000000000
        0.000000000000000
        0.000000000000000
        0.000000000000000
        0.000000000000000
        0.000000000000000
        0.000000000000000
        0.000000000000000
        0.000000000000000
        0.000000000000000
        0.000000000000000
        0.000000000000000
        0.000000000000000
        0.000000000000000
        0.000000000000000
        0.000000000000000
        0.000000000000000
        0.000000000000000
        0.000000000000000
        0.000000000000000
        0.000000000000000
        0.000000000000000
        0.000000000000000
        0.000000000000000
        0.000000000000000
        0.000000000000000
        0.000000000000000
        0.000000000000000
        0.000000000000000
        0.000000000000000
END_DATAGRID_3D
END_BLOCK_DATAGRID_3D
