ATOMS
         C    7.558905    7.558905    7.558905
         H    8.755769    8.755769    8.755769
         H    6.362040    6.362040    8.755769
         H    8.755769    6.362040    6.362040
         H    6.362040    8.755769    6.362040
BEGIN_BLOCK_DATAGRID_3D
units: coords = b, function = sqrt(b^-3)
BEGIN_DATAGRID_3D_function
      9      9      9
0.0 0.0 0.0
   15.117809    0.000000    0.000000
    0.000000   15.117809    0.000000
    0.000000    0.000000   15.117809
        0.000000000000000
        0.000000000000000
        0.000000000000000
        0.000000000000000
        0.000000000000000
        0.000000000000000
        0.000000000000000
        0.000000000000000
        0.000000000000000
        0.000000000000000
        0.000000000000000
        0.000000000000000
        0.000000000000000
        0.000000000000000
        0.000000000000000
        0.000000000000000
        0.000000000000000
        0.000000000000000
        0.000000000000000
        0.000000000000000
        0.000000000000000
        0.000000000000000
        0.000000000000000
        0.000000000000000
        0.000000000000000
        0.000000000000000
        0.000000000000000
        0.000000000000000
        0.000000000000000
        0.000000000000000
        0.000000000000000
        0.000764592660024
        0.000532848505647
        0.000000000000000
        0.000000000000000
        0.000000000000000
        0.000000000000000
        0.000000000000000
        0.000000000000000
        0.001221702363430
        0.001529297297777
        0.000830035030939
        0.000000000000000
        0.000000000000000
        0.000000000000000
        0.000000000000000
        0.000000000000000
        0.000000000000000
        0.001216643662725
        0.001287135592121
        0.000000000000000
        0.000000000000000
        0.000000000000000
        0.000000000000000
        0.000000000000000
        0.000000000000000
        0.000000000000000
        0.000000000000000
        0.000000000000000
        0.000000000000000
        0.000000000000000
        0.000000000000000
        0.000000000000000
        0.000000000000000
        0.000000000000000
        0.000000000000000
        0.000000000000000
        0.000000000000000
        0.000000000000000
        0.000000000000000
        0.000000000000000
        0.000000000000000
        0.000000000000000
        0.000000000000000
        0.000000000000000
        0.000000000000000
        0.000000000000000
        0.000000000000000
        0.000000000000000
        0.000000000000000
        0.000000000000000
        0.000000000000000
        0.000000000000000
        0.000000000000000
        0.000000000000000
        0.000000000000000
        0.000000000000000
        0.000000000000000
        0.000000000000000
        0.000000000000000
        0.000000000000000
        0.000000000000000
        0.000000000000000
        0.000000000000000
        0.000024002608554
       -0.000044364588533
        0.000000000000000
        0.000000000000000
        0.000000000000000
        0.000000000000000
        0.000000000000000
        0.000000000000000
        0.000875449844050
        0.000955428293591
        0.000413597735237
        0.000046469020451
        0.000000000000000
        0.000000000000000
        0.000000000000000
        0.000000000000000
        0.001819630282845
        0.003829463489811
        0.004353822576214
        0.002410145915578
        0.000653047389074
        0.000086860843833
        0.000000000000000
        0.000000000000000
        0.001112682258737
        0.003923775764243
        0.007972804608522
        0.008874374372444
        0.005031578773708
        0.001541099070042
        0.000236301008394
        0.000000000000000
        0.000000000000000
        0.001176876841224
        0.004153840920334
        0.008166210473498
        0.008650423595384
        0.004769019790696
        0.001413338013410
        0.000000000000000
        0.000000000000000
        0.000000000000000
        0.000000000000000
        0.002183561438212
        0.004393152947868
        0.004509226333322
        0.002357424975073
        0.000000000000000
        0.000000000000000
        0.000000000000000
        0.000000000000000
        0.000000000000000
        0.000000000000000
        0.001308002276497
        0.001324875721559
        0.000000000000000
        0.000000000000000
        0.000000000000000
        0.000000000000000
        0.000000000000000
        0.000000000000000
        0.000000000000000
        0.000000000000000
        0.000000000000000
        0.000000000000000
        0.000000000000000
        0.000000000000000
        0.000000000000000
        0.000000000000000
        0.000000000000000
        0.000000000000000
        0.000000000000000
        0.000000000000000
        0.000000000000000
        0.000000000000000
        0.000000000000000
        0.000000000000000
        0.000000000000000
        0.000000000000000
        0.000000000000000
       -0.000270411117660
       -0.000684341743470
       -0.000804593585690
       -0.000466893654821
        0.000000000000000
        0.000000000000000
        0.000000000000000
        0.000000000000000
        0.000889748234839
        0.001427117893612
        0.000526934235053
       -0.001024956486188
       -0.000943906137168
       -0.000348074469764
        0.000000000000000
        0.000000000000000
        0.001462956303188
        0.005547945616509
        0.011906504961967
        0.012879783005729
        0.004018884393067
        0.000065679470377
       -0.000283177385358
        0.000000000000000
        0.000000000000000
        0.003413391368508
        0.013623260937562
        0.033874548723915
        0.040636753627846
        0.017271222185308
        0.003438261410144
        0.000280903823875
        0.000000000000000
        0.000000000000000
        0.003774711319364
        0.015202319259492
        0.036880927591405
        0.038265307150355
        0.017087672769986
        0.004234820868774
        0.000532735850908
        0.000000000000000
        0.000000000000000
        0.002023811237451
        0.007799030559608
        0.016292471857891
        0.016533735835580
        0.008355237949503
        0.002224079039186
        0.000000000000000
        0.000000000000000
        0.000000000000000
        0.000000000000000
        0.002142535767790
        0.004295808975096
        0.004378207679899
        0.002265877131413
        0.000000000000000
        0.000000000000000
        0.000000000000000
        0.000000000000000
        0.000000000000000
        0.000000000000000
        0.000000000000000
        0.000000000000000
        0.000000000000000
        0.000000000000000
        0.000000000000000
        0.000000000000000
        0.000000000000000
        0.000000000000000
        0.000000000000000
        0.000000000000000
       -0.000662034095627
       -0.000590725517612
        0.000000000000000
        0.000000000000000
        0.000000000000000
        0.000000000000000
        0.000000000000000
       -0.000697222085995
       -0.002102258145837
       -0.003596153630954
       -0.003204432376315
       -0.001599873320692
       -0.000480169041694
        0.000000000000000
        0.000000000000000
        0.000091955961165
       -0.000435609906409
       -0.003746146581837
       -0.009749621608553
       -0.009995227898361
       -0.004646987989456
       -0.001317912768879
        0.000000000000000
        0.000000000000000
        0.001982990133171
        0.007033833626762
        0.013579222385600
        0.004894078546966
       -0.013044043569117
       -0.006751889370028
       -0.001904922702733
       -0.000330657342041
        0.000777655035826
        0.005498254309746
        0.026830197898475
        0.086957392734851
        0.107801587372895
        0.025527365300551
       -0.000120710006696
       -0.001078242136270
       -0.000266371229565
        0.000866948563772
        0.006418773379177
        0.032518542103706
        0.107767396836832
        0.107588391457457
        0.033947043928636
        0.005058044511661
        0.000210408427482
        0.000000000000000
        0.000000000000000
        0.003692010962495
        0.014825704187210
        0.035761094640081
        0.036457205438334
        0.015837128752156
        0.003756821593933
        0.000423223593605
        0.000000000000000
        0.000000000000000
        0.001131557415597
        0.003973796079301
        0.007717559197907
        0.008015215407643
        0.004295117550407
        0.001212277125573
        0.000000000000000
        0.000000000000000
        0.000000000000000
        0.000000000000000
        0.000000000000000
        0.001126862430309
        0.001173143615616
        0.000000000000000
        0.000000000000000
        0.000000000000000
        0.000000000000000
        0.000000000000000
        0.000000000000000
        0.000000000000000
       -0.000868688067269
       -0.001302988433552
       -0.000879417568789
        0.000000000000000
        0.000000000000000
        0.000000000000000
        0.000000000000000
       -0.000468130759826
       -0.002026211395694
       -0.005232198666451
       -0.007561114500246
       -0.005847593705649
       -0.002629691540583
       -0.000681088452121
        0.000000000000000
        0.000000000000000
       -0.000896867840897
       -0.005393208448461
       -0.019240475070009
       -0.034623093912995
       -0.024335506994586
       -0.009142306494584
       -0.002250145684478
        0.000000000000000
        0.000113878819453
        0.000243082040973
       -0.003655523716811
       -0.032202175373056
       -0.091847907577937
       -0.063631758976733
       -0.019098109495084
       -0.004007492379404
       -0.000549196197512
        0.000647677873208
        0.003758258816034
        0.017208095986933
        0.045648984272093
        0.000001492051809
       -0.045643075597936
       -0.017205336033667
       -0.003757055024441
       -0.000647415254975
        0.000755050529349
        0.005264133655456
        0.025313640282195
        0.079833097335444
        0.091849532618812
        0.016007158832659
       -0.002556143558767
       -0.001498004472129
       -0.000319388292316
        0.000000000000000
        0.003211099679684
        0.012617882740905
        0.030549882678407
        0.034623468168351
        0.013027677269142
        0.001919113699049
       -0.000063387697746
        0.000000000000000
        0.000000000000000
        0.001039361325062
        0.003590462980056
        0.007103471122875
        0.007561172835679
        0.003976595919412
        0.001065785212471
        0.000110029941857
        0.000000000000000
        0.000000000000000
        0.000000000000000
        0.000000000000000
        0.001085105890831
        0.001302996802161
        0.000663024808124
        0.000000000000000
        0.000000000000000
        0.000000000000000
        0.000000000000000
        0.000000000000000
        0.000000000000000
       -0.000899863744991
       -0.001086078386194
        0.000000000000000
        0.000000000000000
        0.000000000000000
        0.000000000000000
        0.000000000000000
       -0.000596439862421
       -0.002495467749997
       -0.005806681144566
       -0.007483679290061
       -0.005223674663812
       -0.002057166179202
        0.000000000000000
        0.000000000000000
        0.000000000000000
       -0.001656477405301
       -0.008360728764237
       -0.024851335912325
       -0.033826702736810
       -0.020956681061173
       -0.007898620129919
       -0.001791934026661
        0.000000000000000
       -0.000126028723462
       -0.001939865390871
       -0.015199585189412
       -0.067658738591562
       -0.100729955089791
       -0.054069597465510
       -0.017333820920579
       -0.003850714053383
        0.000000000000000
        0.000091274312976
        0.000008961386683
       -0.005172081333092
       -0.039326470772462
       -0.107799962332019
       -0.073151965444624
       -0.021533543047155
       -0.004427254715263
       -0.000602213260263
        0.000000000000000
        0.001658410748699
        0.005244383196473
        0.006546199810515
       -0.011750455378325
       -0.027059403383321
       -0.010564016554955
       -0.002572571650544
       -0.000409968874751
        0.000000000000000
        0.001277161504876
        0.004578295336258
        0.008866496043394
        0.007119644690552
       -0.000913076878336
       -0.001816677542949
       -0.000717005203921
        0.000000000000000
        0.000000000000000
        0.000000000000000
        0.001542285337118
        0.003030969214289
        0.003064706186569
        0.001293818256555
        0.000121869393426
       -0.000054787164454
        0.000000000000000
        0.000000000000000
        0.000000000000000
        0.000000000000000
        0.000000000000000
        0.000574977676852
        0.000363751916412
        0.000000000000000
        0.000000000000000
        0.000000000000000
        0.000000000000000
        0.000000000000000
        0.000000000000000
        0.000000000000000
        0.000000000000000
        0.000000000000000
        0.000000000000000
        0.000000000000000
        0.000000000000000
        0.000000000000000
        0.000000000000000
       -0.001433052198982
       -0.003290790449516
       -0.003971632941391
       -0.002484018511218
        0.000000000000000
        0.000000000000000
        0.000000000000000
        0.000000000000000
       -0.001079495702099
       -0.004896426253834
       -0.011982988873323
       -0.015062857466982
       -0.009761559209344
       -0.003542474187365
        0.000000000000000
        0.000000000000000
        0.000000000000000
       -0.001739177762170
       -0.008737343836518
       -0.025971168863649
       -0.035634804448831
       -0.022207225079003
       -0.008376619404760
       -0.001901446283964
        0.000000000000000
        0.000000000000000
       -0.001099159529721
       -0.006398586645118
       -0.022565141115517
       -0.040636379372489
       -0.028579051910752
       -0.010661454205679
       -0.002594437206099
        0.000000000000000
        0.000000000000000
       -0.000093838837147
       -0.001405260186659
       -0.006786155500409
       -0.015509759923730
       -0.014927189169764
       -0.006529345002783
       -0.001751740587442
        0.000000000000000
        0.000000000000000
        0.000000000000000
        0.000428916487822
       -0.000020548750763
       -0.001997629846059
       -0.003283950738703
       -0.001958084070913
       -0.000595959474033
        0.000000000000000
        0.000000000000000
        0.000000000000000
        0.000000000000000
        0.000488587307072
        0.000277807579235
       -0.000200289262168
       -0.000242446458152
        0.000000000000000
        0.000000000000000
        0.000000000000000
        0.000000000000000
        0.000000000000000
        0.000000000000000
        0.000000000000000
        0.000000000000000
        0.000000000000000
        0.000000000000000
        0.000000000000000
        0.000000000000000
        0.000000000000000
        0.000000000000000
        0.000000000000000
        0.000000000000000
        0.000000000000000
        0.000000000000000
        0.000000000000000
        0.000000000000000
        0.000000000000000
        0.000000000000000
        0.000000000000000
       -0.001032270595982
       -0.001173273520359
        0.000000000000000
        0.000000000000000
        0.000000000000000
        0.000000000000000
        0.000000000000000
        0.000000000000000
       -0.001474077869403
       -0.003388134422288
       -0.004102651594814
       -0.002575566354878
        0.000000000000000
        0.000000000000000
        0.000000000000000
        0.000000000000000
       -0.000641759288049
       -0.002675512591030
       -0.006255332420157
       -0.008118887477802
       -0.005697576904101
       -0.002258227067039
        0.000000000000000
        0.000000000000000
        0.000000000000000
       -0.000541451693502
       -0.002359524179881
       -0.006101532152098
       -0.008874316037011
       -0.006902576559946
       -0.003105005398154
       -0.000807359518658
        0.000000000000000
        0.000000000000000
        0.000000000000000
       -0.000974567031723
       -0.002900752421360
       -0.004885270020599
       -0.004320760035337
       -0.002131051316340
       -0.000621817049981
        0.000000000000000
        0.000000000000000
        0.000000000000000
        0.000000000000000
       -0.000657273654638
       -0.001361962457826
       -0.001418480583095
       -0.000755809133424
        0.000000000000000
        0.000000000000000
        0.000000000000000
        0.000000000000000
        0.000000000000000
        0.000000000000000
       -0.000175594125030
       -0.000231338312212
        0.000000000000000
        0.000000000000000
        0.000000000000000
        0.000000000000000
        0.000000000000000
        0.000000000000000
        0.000000000000000
        0.000000000000000
        0.000000000000000
        0.000000000000000
        0.000000000000000
        0.000000000000000
        0.000000000000000
        0.000000000000000
        0.000000000000000
        0.000000000000000
        0.000000000000000
        0.000000000000000
        0.000000000000000
        0.000000000000000
        0.000000000000000
        0.000000000000000
        0.000000000000000
        0.000000000000000
        0.000000000000000
        0.000000000000000
        0.000000000000000
        0.000000000000000
        0.000000000000000
        0.000000000000000
        0.000000000000000
        0.000000000000000
        0.000000000000000
        0.000000000000000
        0.000000000000000
        0.000000000000000
        0.000000000000000
        0.000000000000000
        0.000000000000000
        0.000000000000000
        0.000000000000000
        0.000000000000000
       -0.000989644977407
       -0.001200070362699
        0.000000000000000
        0.000000000000000
        0.000000000000000
        0.000000000000000
        0.000000000000000
        0.000000000000000
        0.000000000000000
       -0.001005284539867
       -0.001529288929168
       -0.001046427791604
        0.000000000000000
        0.000000000000000
        0.000000000000000
        0.000000000000000
        0.000000000000000
        0.000000000000000
        0.000000000000000
       -0.000851649078799
       -0.000759822106847
        0.000000000000000
        0.000000000000000
        0.000000000000000
        0.000000000000000
        0.000000000000000
        0.000000000000000
        0.000000000000000
        0.000000000000000
        0.000000000000000
        0.000000000000000
        0.000000000000000
        0.000000000000000
        0.000000000000000
        0.000000000000000
        0.000000000000000
        0.000000000000000
        0.000000000000000
        0.000000000000000
        0.000000000000000
        0.000000000000000
        0.000000000000000
        0.000000000000000
        0.000000000000000
        0.000000000000000
        0.000000000000000
        0.000000000000000
        0.000000000000000
        0.000000000000000
        0.000000000000000
        0.000000000000000
END_DATAGRID_3D
END_BLOCK_DATAGRID_3D
