ATOMS
         C    7.558905    7.558905    7.558905
         H    8.755769    8.755769    8.755769
         H    6.362040    6.362040    8.755769
         H    8.755769    6.362040    6.362040
         H    6.362040    8.755769    6.362040
BEGIN_BLOCK_DATAGRID_3D
units: coords = b, function = sqrt(b^-3)
BEGIN_DATAGRID_3D_function
      9      9      9
0.0 0.0 0.0
   15.117809    0.000000    0.000000
    0.000000   15.117809    0.000000
    0.000000    0.000000   15.117809
        0.000000000000000
        0.000000000000000
        0.000000000000000
        0.000000000000000
        0.000000000000000
        0.000000000000000
        0.000000000000000
        0.000000000000000
        0.000000000000000
        0.000000000000000
        0.000000000000000
        0.000000000000000
        0.000000000000000
        0.000000000000000
        0.000000000000000
        0.000000000000000
        0.000000000000000
        0.000000000000000
        0.000000000000000
        0.000000000000000
        0.000000000000000
        0.000000000000000
        0.000000000000000
        0.000000000000000
        0.000000000000000
        0.000000000000000
        0.000000000000000
        0.000000000000000
        0.000000000000000
        0.000000000000000
        0.000000000000000
       -0.000274677768485
       -0.000074776252478
        0.000000000000000
        0.000000000000000
        0.000000000000000
        0.000000000000000
        0.000000000000000
        0.000000000000000
       -0.000879550108527
       -0.000921736849702
       -0.000357044779424
        0.000000000000000
        0.000000000000000
        0.000000000000000
        0.000000000000000
        0.000000000000000
        0.000000000000000
       -0.000979612831735
       -0.000961917119466
        0.000000000000000
        0.000000000000000
        0.000000000000000
        0.000000000000000
        0.000000000000000
        0.000000000000000
        0.000000000000000
        0.000000000000000
        0.000000000000000
        0.000000000000000
        0.000000000000000
        0.000000000000000
        0.000000000000000
        0.000000000000000
        0.000000000000000
        0.000000000000000
        0.000000000000000
        0.000000000000000
        0.000000000000000
        0.000000000000000
        0.000000000000000
        0.000000000000000
        0.000000000000000
        0.000000000000000
        0.000000000000000
        0.000000000000000
        0.000000000000000
        0.000000000000000
        0.000000000000000
        0.000000000000000
        0.000000000000000
        0.000000000000000
        0.000000000000000
        0.000000000000000
        0.000000000000000
        0.000000000000000
        0.000000000000000
        0.000000000000000
        0.000000000000000
        0.000000000000000
        0.000000000000000
        0.000000000000000
        0.000000000000000
        0.000000000000000
        0.000447347636136
        0.000509738241818
        0.000000000000000
        0.000000000000000
        0.000000000000000
        0.000000000000000
        0.000000000000000
        0.000000000000000
       -0.000011107002632
        0.000685647462225
        0.001176805810386
        0.000741993292115
        0.000000000000000
        0.000000000000000
        0.000000000000000
        0.000000000000000
       -0.001260476991707
       -0.001999939140622
       -0.001097945098071
        0.000621318693242
        0.000875489092857
        0.000344623486400
        0.000000000000000
        0.000000000000000
       -0.000993109094656
       -0.003242123932615
       -0.005886861920036
       -0.005348784003248
       -0.001951018089990
       -0.000051432977090
        0.000180210077241
        0.000000000000000
        0.000000000000000
       -0.001106124055766
       -0.003772296119030
       -0.006995526084894
       -0.006739934911954
       -0.003182652988711
       -0.000688099729392
        0.000000000000000
        0.000000000000000
        0.000000000000000
        0.000000000000000
       -0.002085828666922
       -0.004073612836559
       -0.003979204371929
       -0.001937469718467
        0.000000000000000
        0.000000000000000
        0.000000000000000
        0.000000000000000
        0.000000000000000
        0.000000000000000
       -0.001271238811185
       -0.001260246653551
        0.000000000000000
        0.000000000000000
        0.000000000000000
        0.000000000000000
        0.000000000000000
        0.000000000000000
        0.000000000000000
        0.000000000000000
        0.000000000000000
        0.000000000000000
        0.000000000000000
        0.000000000000000
        0.000000000000000
        0.000000000000000
        0.000000000000000
        0.000000000000000
        0.000000000000000
        0.000000000000000
        0.000000000000000
        0.000000000000000
        0.000000000000000
        0.000000000000000
        0.000000000000000
        0.000000000000000
        0.000000000000000
        0.001050828173256
        0.002205317787639
        0.002305799221236
        0.001217757143403
        0.000000000000000
        0.000000000000000
        0.000000000000000
        0.000000000000000
       -0.000098806537960
        0.001545144121492
        0.005355678541524
        0.006822368464623
        0.003719183630554
        0.001068277189284
        0.000000000000000
        0.000000000000000
       -0.001242941612812
       -0.003908046308638
       -0.005477477464030
        0.001241905007452
        0.009419212246211
        0.005450048483554
        0.001649764752880
        0.000000000000000
        0.000000000000000
       -0.003217030126933
       -0.011974741892064
       -0.026541688406470
       -0.024492652341639
       -0.004284456945382
        0.001692158420561
        0.000990773056106
        0.000000000000000
        0.000000000000000
       -0.003753653430024
       -0.014651133572418
       -0.034068824393138
       -0.032068050359305
       -0.011998321254518
       -0.001988307542774
        0.000040186681591
        0.000000000000000
        0.000000000000000
       -0.002077972538238
       -0.007850075717878
       -0.016023453553487
       -0.015638262013027
       -0.007441497972904
       -0.001778118349433
        0.000000000000000
        0.000000000000000
        0.000000000000000
        0.000000000000000
       -0.002227452492356
       -0.004409687898380
       -0.004431574858466
       -0.002253583104477
        0.000000000000000
        0.000000000000000
        0.000000000000000
        0.000000000000000
        0.000000000000000
        0.000000000000000
        0.000000000000000
        0.000000000000000
        0.000000000000000
        0.000000000000000
        0.000000000000000
        0.000000000000000
        0.000000000000000
        0.000000000000000
        0.000000000000000
        0.000000000000000
        0.001047449944234
        0.000966496797825
        0.000000000000000
        0.000000000000000
        0.000000000000000
        0.000000000000000
        0.000000000000000
        0.001071804983287
        0.003497105495322
        0.006269748128413
        0.005824841253655
        0.002963511443971
        0.000870149684246
        0.000000000000000
        0.000000000000000
        0.000027405186294
        0.001636702699588
        0.009028113878166
        0.022213907007482
        0.022407358977482
        0.009817859828176
        0.002608793693143
        0.000000000000000
        0.000000000000000
       -0.001909168288803
       -0.005237951506090
       -0.001508017414187
        0.033385951181869
        0.051398144377748
        0.018326621081528
        0.004189949675659
        0.000639339853549
       -0.000857718257660
       -0.005765201676324
       -0.026195384781166
       -0.075219531244081
       -0.064976638533910
        0.007423212982009
        0.010098364543660
        0.003101824097533
        0.000549684434016
       -0.000962418639580
       -0.006909602064525
       -0.033854355488405
       -0.108485991874410
       -0.101182269443941
       -0.027138218692872
       -0.002050232804617
        0.000587278547437
        0.000000000000000
        0.000000000000000
       -0.004039134024764
       -0.015951329351740
       -0.037935093384359
       -0.038310927244989
       -0.016316298188873
       -0.003638850272091
       -0.000337965994007
        0.000000000000000
        0.000000000000000
       -0.001262560973584
       -0.004393851775592
       -0.008544493642521
       -0.008933125707205
       -0.004818995236688
       -0.001382365790999
        0.000000000000000
        0.000000000000000
        0.000000000000000
        0.000000000000000
        0.000000000000000
       -0.001289575583856
       -0.001355483767878
        0.000000000000000
        0.000000000000000
        0.000000000000000
        0.000000000000000
        0.000000000000000
        0.000000000000000
        0.000000000000000
        0.001057605696558
        0.001703085317993
        0.001227240134068
        0.000000000000000
        0.000000000000000
        0.000000000000000
        0.000000000000000
        0.000471532775417
        0.002271264716984
        0.006350153612223
        0.009882902596330
        0.008131830452524
        0.003814212302526
        0.001030453807867
        0.000000000000000
        0.000000000000000
        0.000776688197251
        0.005646654745828
        0.022680391048333
        0.045254864894753
        0.034276814878788
        0.013352387059897
        0.003336748010307
        0.000000000000000
       -0.000242690165295
       -0.000895879370550
        0.002054692673607
        0.035209427488400
        0.120056780995019
        0.090057251698314
        0.027687634367800
        0.005816979413562
        0.000811841634789
       -0.000878394042828
       -0.005097268278191
       -0.023340935015135
       -0.061921243823136
       -0.000000000000001
        0.061921243823138
        0.023340935015136
        0.005097268278191
        0.000878394042828
       -0.000935756354792
       -0.006573440220429
       -0.031431301028982
       -0.099817761316348
       -0.120056780995017
       -0.025448917870364
        0.001688973987577
        0.001652340177418
        0.000366604885298
        0.000000000000000
       -0.003915372269755
       -0.015445720573746
       -0.038020481539970
       -0.045254864894752
       -0.018936724387149
       -0.003553321231978
       -0.000198063937803
        0.000000000000000
        0.000000000000000
       -0.001246206864393
       -0.004392836561973
       -0.008888291259392
       -0.009882902596329
       -0.005593692805355
       -0.001692640457536
       -0.000255779718892
        0.000000000000000
        0.000000000000000
        0.000000000000000
        0.000000000000000
       -0.001351154854071
       -0.001703085317993
       -0.000933690976555
        0.000000000000000
        0.000000000000000
        0.000000000000000
        0.000000000000000
        0.000000000000000
        0.000000000000000
        0.000981688922814
        0.001237395886392
        0.000000000000000
        0.000000000000000
        0.000000000000000
        0.000000000000000
        0.000000000000000
        0.000536868424829
        0.002388894198629
        0.005952727394144
        0.008212235936333
        0.006078725792614
        0.002528563609724
        0.000000000000000
        0.000000000000000
        0.000000000000000
        0.001278543476785
        0.007182906637357
        0.023137519211184
        0.034743298919638
        0.023261770406487
        0.009257940036334
        0.002194914844820
        0.000000000000000
       -0.000042389935334
        0.000835128854100
        0.010363841384646
        0.054082584681623
        0.091880728004845
        0.054437423616726
        0.018704267514192
        0.004351612692818
        0.000000000000000
       -0.000320728262427
       -0.001704117914655
       -0.003181223574209
        0.010611197416133
        0.064976638533911
        0.057185120845942
        0.019278243811717
        0.004367495493446
        0.000628762086071
        0.000000000000000
       -0.003029722951451
       -0.011416083203485
       -0.025791187509666
       -0.024084409742770
        0.003005262815043
        0.005163893022232
        0.001884523534766
        0.000365468721365
        0.000000000000000
       -0.001884354037107
       -0.007255792463830
       -0.015973586095780
       -0.018646278682131
       -0.007609784804306
       -0.001049437113792
        0.000151796854837
        0.000000000000000
        0.000000000000000
        0.000000000000000
       -0.002218002802012
       -0.004756836051247
       -0.005548858357542
       -0.003233075005278
       -0.000958553867007
       -0.000144457135491
        0.000000000000000
        0.000000000000000
        0.000000000000000
        0.000000000000000
        0.000000000000000
       -0.000929362062747
       -0.000658610136783
        0.000000000000000
        0.000000000000000
        0.000000000000000
        0.000000000000000
        0.000000000000000
        0.000000000000000
        0.000000000000000
        0.000000000000000
        0.000000000000000
        0.000000000000000
        0.000000000000000
        0.000000000000000
        0.000000000000000
        0.000000000000000
        0.001265236020401
        0.003046606421363
        0.003880159231870
        0.002549540419755
        0.000000000000000
        0.000000000000000
        0.000000000000000
        0.000000000000000
        0.000797328297798
        0.003913430457093
        0.010178398000910
        0.013643363264201
        0.009349498614430
        0.003566784648773
        0.000000000000000
        0.000000000000000
        0.000000000000000
        0.000993062882044
        0.005882710858035
        0.019271250219963
        0.028500422033954
        0.018943793472132
        0.007607397307017
        0.001816762169222
        0.000000000000000
        0.000000000000000
        0.000078346054429
        0.002175676064145
        0.011201597914832
        0.024492652341639
        0.019624547437021
        0.008106907407358
        0.002147911016398
        0.000000000000000
        0.000000000000000
       -0.000614007238001
       -0.001711043455605
       -0.001467994753584
        0.002325723317899
        0.005378361926965
        0.003318374230830
        0.001110825795100
        0.000000000000000
        0.000000000000000
        0.000000000000000
       -0.001689859761380
       -0.003453144763018
       -0.003360779792698
       -0.000977312912045
        0.000217461630231
        0.000212367051156
        0.000000000000000
        0.000000000000000
        0.000000000000000
        0.000000000000000
       -0.001346785488534
       -0.001653902161044
       -0.000942717744219
       -0.000255540671447
        0.000000000000000
        0.000000000000000
        0.000000000000000
        0.000000000000000
        0.000000000000000
        0.000000000000000
        0.000000000000000
        0.000000000000000
        0.000000000000000
        0.000000000000000
        0.000000000000000
        0.000000000000000
        0.000000000000000
        0.000000000000000
        0.000000000000000
        0.000000000000000
        0.000000000000000
        0.000000000000000
        0.000000000000000
        0.000000000000000
        0.000000000000000
        0.000000000000000
        0.000000000000000
        0.000897279867258
        0.001054638947148
        0.000000000000000
        0.000000000000000
        0.000000000000000
        0.000000000000000
        0.000000000000000
        0.000000000000000
        0.001123612194967
        0.002710531359541
        0.003427788745334
        0.002233427033745
        0.000000000000000
        0.000000000000000
        0.000000000000000
        0.000000000000000
        0.000380431507011
        0.001767338542066
        0.004403759836517
        0.006019045141083
        0.004442383544637
        0.001834297548117
        0.000000000000000
        0.000000000000000
        0.000000000000000
        0.000218435005680
        0.001120552087625
        0.003348724272867
        0.005348784003248
        0.004489155737159
        0.002173004822080
        0.000594464011735
        0.000000000000000
        0.000000000000000
        0.000000000000000
        0.000114279172982
        0.000740208584697
        0.001818834868943
        0.001970447555135
        0.001129468484106
        0.000381069062356
        0.000000000000000
        0.000000000000000
        0.000000000000000
        0.000000000000000
       -0.000284850312646
       -0.000134231835629
        0.000186275666631
        0.000220223179841
        0.000000000000000
        0.000000000000000
        0.000000000000000
        0.000000000000000
        0.000000000000000
        0.000000000000000
       -0.000241739929733
       -0.000135779297891
        0.000000000000000
        0.000000000000000
        0.000000000000000
        0.000000000000000
        0.000000000000000
        0.000000000000000
        0.000000000000000
        0.000000000000000
        0.000000000000000
        0.000000000000000
        0.000000000000000
        0.000000000000000
        0.000000000000000
        0.000000000000000
        0.000000000000000
        0.000000000000000
        0.000000000000000
        0.000000000000000
        0.000000000000000
        0.000000000000000
        0.000000000000000
        0.000000000000000
        0.000000000000000
        0.000000000000000
        0.000000000000000
        0.000000000000000
        0.000000000000000
        0.000000000000000
        0.000000000000000
        0.000000000000000
        0.000000000000000
        0.000000000000000
        0.000000000000000
        0.000000000000000
        0.000000000000000
        0.000000000000000
        0.000000000000000
        0.000000000000000
        0.000000000000000
        0.000000000000000
        0.000000000000000
        0.000000000000000
        0.000671726170693
        0.000843829237979
        0.000000000000000
        0.000000000000000
        0.000000000000000
        0.000000000000000
        0.000000000000000
        0.000000000000000
        0.000000000000000
        0.000586000951013
        0.000921736849702
        0.000650593936937
        0.000000000000000
        0.000000000000000
        0.000000000000000
        0.000000000000000
        0.000000000000000
        0.000000000000000
        0.000000000000000
        0.000392765649972
        0.000382662913520
        0.000000000000000
        0.000000000000000
        0.000000000000000
        0.000000000000000
        0.000000000000000
        0.000000000000000
        0.000000000000000
        0.000000000000000
        0.000000000000000
        0.000000000000000
        0.000000000000000
        0.000000000000000
        0.000000000000000
        0.000000000000000
        0.000000000000000
        0.000000000000000
        0.000000000000000
        0.000000000000000
        0.000000000000000
        0.000000000000000
        0.000000000000000
        0.000000000000000
        0.000000000000000
        0.000000000000000
        0.000000000000000
        0.000000000000000
        0.000000000000000
        0.000000000000000
        0.000000000000000
        0.000000000000000
END_DATAGRID_3D
END_BLOCK_DATAGRID_3D
