ATOMS
         C    7.558905    7.558905    7.558905
         H    8.755769    8.755769    8.755769
         H    6.362040    6.362040    8.755769
         H    8.755769    6.362040    6.362040
         H    6.362040    8.755769    6.362040
BEGIN_BLOCK_DATAGRID_3D
units: coords = b, function = sqrt(b^-3)
BEGIN_DATAGRID_3D_function
      9      9      9
0.0 0.0 0.0
   15.117809    0.000000    0.000000
    0.000000   15.117809    0.000000
    0.000000    0.000000   15.117809
        0.000000000000000
        0.000000000000000
        0.000000000000000
        0.000000000000000
        0.000000000000000
        0.000000000000000
        0.000000000000000
        0.000000000000000
        0.000000000000000
        0.000000000000000
        0.000000000000000
        0.000000000000000
        0.000000000000000
        0.000000000000000
        0.000000000000000
        0.000000000000000
        0.000000000000000
        0.000000000000000
        0.000000000000000
        0.000000000000000
        0.000000000000000
        0.000000000000000
        0.000000000000000
        0.000000000000000
        0.000000000000000
        0.000000000000000
        0.000000000000000
        0.000000000000000
        0.000000000000000
        0.000000000000000
        0.000000000000000
        0.001444444466725
        0.001284717771461
        0.000000000000000
        0.000000000000000
        0.000000000000000
        0.000000000000000
        0.000000000000000
        0.000000000000000
        0.001181473759230
        0.001902285730767
        0.001370617774107
        0.000000000000000
        0.000000000000000
        0.000000000000000
        0.000000000000000
        0.000000000000000
        0.000000000000000
        0.000891336392180
        0.001107647066612
        0.000000000000000
        0.000000000000000
        0.000000000000000
        0.000000000000000
        0.000000000000000
        0.000000000000000
        0.000000000000000
        0.000000000000000
        0.000000000000000
        0.000000000000000
        0.000000000000000
        0.000000000000000
        0.000000000000000
        0.000000000000000
        0.000000000000000
        0.000000000000000
        0.000000000000000
        0.000000000000000
        0.000000000000000
        0.000000000000000
        0.000000000000000
        0.000000000000000
        0.000000000000000
        0.000000000000000
        0.000000000000000
        0.000000000000000
        0.000000000000000
        0.000000000000000
        0.000000000000000
        0.000000000000000
        0.000000000000000
        0.000000000000000
        0.000000000000000
        0.000000000000000
        0.000000000000000
        0.000000000000000
        0.000000000000000
        0.000000000000000
        0.000000000000000
        0.000000000000000
        0.000000000000000
        0.000000000000000
        0.000000000000000
        0.000000000000000
        0.001271674553095
        0.001211043264588
        0.000000000000000
        0.000000000000000
        0.000000000000000
        0.000000000000000
        0.000000000000000
        0.000000000000000
        0.002585725154411
        0.004582765691110
        0.004200081633219
        0.002001411071959
        0.000000000000000
        0.000000000000000
        0.000000000000000
        0.000000000000000
        0.002042556475335
        0.005877972895152
        0.009511241669289
        0.008233289765618
        0.003930007286315
        0.001063048622607
        0.000000000000000
        0.000000000000000
        0.000645430136652
        0.002875151118244
        0.007429240623053
        0.011038850719298
        0.008746620532289
        0.003922110285408
        0.001032235459427
        0.000000000000000
        0.000000000000000
        0.000508540565291
        0.002048439460669
        0.004921835550260
        0.006664619486053
        0.004817890093517
        0.001978927197636
        0.000000000000000
        0.000000000000000
        0.000000000000000
        0.000000000000000
        0.000772003985521
        0.001778365113765
        0.002214495712542
        0.001435758518560
        0.000000000000000
        0.000000000000000
        0.000000000000000
        0.000000000000000
        0.000000000000000
        0.000000000000000
        0.000360545923309
        0.000405991042984
        0.000000000000000
        0.000000000000000
        0.000000000000000
        0.000000000000000
        0.000000000000000
        0.000000000000000
        0.000000000000000
        0.000000000000000
        0.000000000000000
        0.000000000000000
        0.000000000000000
        0.000000000000000
        0.000000000000000
        0.000000000000000
        0.000000000000000
        0.000000000000000
        0.000000000000000
        0.000000000000000
        0.000000000000000
        0.000000000000000
        0.000000000000000
        0.000000000000000
        0.000000000000000
        0.000000000000000
        0.000000000000000
        0.002192665069413
        0.004020281501076
        0.003782200903672
        0.001825313901366
        0.000000000000000
        0.000000000000000
        0.000000000000000
        0.000000000000000
        0.002689399323221
        0.008853403415788
        0.016019694262469
        0.014777486590989
        0.006777570497220
        0.001691332948318
        0.000000000000000
        0.000000000000000
        0.001195439335085
        0.006482606719387
        0.020955687484482
        0.040325779121240
        0.034889304890015
        0.013547457186479
        0.003194188124158
        0.000000000000000
        0.000000000000000
        0.001662893713631
        0.008485223563595
        0.028246748996793
        0.050548074619365
        0.035372424367448
        0.012736030441377
        0.002931668237780
        0.000000000000000
        0.000000000000000
        0.001147829243325
        0.005441794331225
        0.015982704264463
        0.023293394243001
        0.015110964886864
        0.005686321753772
        0.001286813103898
        0.000000000000000
        0.000000000000000
        0.000392482031367
        0.001747787988337
        0.004211764926715
        0.005201559742502
        0.003315525057370
        0.001184208889540
        0.000000000000000
        0.000000000000000
        0.000000000000000
        0.000000000000000
        0.000258501078319
        0.000559816463811
        0.000574280450334
        0.000289587369570
        0.000000000000000
        0.000000000000000
        0.000000000000000
        0.000000000000000
        0.000000000000000
        0.000000000000000
        0.000000000000000
        0.000000000000000
        0.000000000000000
        0.000000000000000
        0.000000000000000
        0.000000000000000
        0.000000000000000
        0.000000000000000
        0.000000000000000
        0.000000000000000
        0.000955077843470
        0.000899305476104
        0.000000000000000
        0.000000000000000
        0.000000000000000
        0.000000000000000
        0.000000000000000
        0.001179295730097
        0.003843320610431
        0.006784195620150
        0.006307280470203
        0.003157155739965
        0.000868532632662
        0.000000000000000
        0.000000000000000
        0.000725238674845
        0.004430297344996
        0.015586650752882
        0.032563293165510
        0.030081928532130
        0.011930774419623
        0.002839217307355
        0.000000000000000
        0.000000000000000
        0.001492921116508
        0.009384420862511
        0.041046484340758
        0.105202931085956
        0.093664250424374
        0.026424306641198
        0.004841904506972
        0.000606070176102
        0.000126798226792
        0.001551952293238
        0.011517156868209
        0.057986256325456
        0.134099154608250
        0.081932169275327
        0.021703964665110
        0.003944741438188
        0.000508923723028
        0.000060701652300
        0.000770929496205
        0.005621919570657
        0.024153972562216
        0.034715494514828
        0.018073779977936
        0.005656975195317
        0.001235202418385
        0.000000000000000
        0.000000000000000
        0.000112727169927
        0.000727514720653
        0.001964297679725
        0.000657828367809
       -0.000545254695054
       -0.000298253845493
       -0.000084301520994
        0.000000000000000
        0.000000000000000
       -0.000058671991264
       -0.000205211262683
       -0.000694446467027
       -0.001287501888724
       -0.001115197075538
       -0.000538358576246
        0.000000000000000
        0.000000000000000
        0.000000000000000
        0.000000000000000
        0.000000000000000
       -0.000232533647702
       -0.000319355893650
        0.000000000000000
        0.000000000000000
        0.000000000000000
        0.000000000000000
        0.000000000000000
        0.000000000000000
        0.000000000000000
        0.000464463302575
        0.000930745426079
        0.000784217420395
        0.000000000000000
        0.000000000000000
        0.000000000000000
        0.000000000000000
        0.000103313940659
        0.000834449331122
        0.002899884712775
        0.005401060235055
        0.005014598658321
        0.002491297090139
        0.000717529928790
        0.000000000000000
        0.000000000000000
        0.000184676116542
        0.001962916159572
        0.010027901769944
        0.024732030781789
        0.021099522287343
        0.008420163932623
        0.002063339232545
        0.000000000000000
       -0.000100845606609
       -0.000250357567901
        0.001060795597090
        0.017112559991387
        0.065611686390773
        0.051346364210097
        0.015193548540735
        0.002939765613358
        0.000411889992572
       -0.000191563214867
       -0.001111629918697
       -0.005090271941187
       -0.013503999295311
        0.000000000000001
        0.013503999295308
        0.005090271941185
        0.001111629918696
        0.000191563214867
       -0.000156154091625
       -0.001378577515850
       -0.007467348082739
       -0.031202569180735
       -0.065611686390775
       -0.037256355020753
       -0.008786996055087
       -0.001310830529607
       -0.000154890294338
        0.000000000000000
       -0.000869171208798
       -0.004099930370929
       -0.013373321829347
       -0.024732030781790
       -0.017754102227942
       -0.006283149721267
       -0.001378844140289
        0.000000000000000
        0.000000000000000
       -0.000272257548793
       -0.001297129066392
       -0.003453410560813
       -0.005401060235055
       -0.004461072810283
       -0.002028617354869
       -0.000548586320656
        0.000000000000000
        0.000000000000000
        0.000000000000000
        0.000000000000000
       -0.000528481519449
       -0.000930745426079
       -0.000720199203521
        0.000000000000000
        0.000000000000000
        0.000000000000000
        0.000000000000000
        0.000000000000000
        0.000000000000000
        0.000165388658405
        0.000293602879500
        0.000000000000000
        0.000000000000000
        0.000000000000000
        0.000000000000000
        0.000000000000000
       -0.000099589552949
       -0.000232036829164
        0.000129225107914
        0.001130287750945
        0.001389923477806
        0.000788325366005
        0.000000000000000
        0.000000000000000
        0.000000000000000
       -0.000714766316961
       -0.002639762712541
       -0.005191403901584
       -0.001435869108223
        0.002059947329461
        0.001523684401012
        0.000489271357266
        0.000000000000000
       -0.000279833786117
       -0.002095671650727
       -0.010744812237505
       -0.036018456009808
       -0.036744006884472
       -0.012120274826988
       -0.002025005630486
       -0.000158111912605
        0.000000000000000
       -0.000383797925026
       -0.003180887376990
       -0.017923709353858
       -0.072076265514804
       -0.134099154608252
       -0.067842160085983
       -0.015297412179462
       -0.002315806354437
       -0.000251924024794
        0.000000000000000
       -0.002570011622288
       -0.013016390427343
       -0.046999989491708
       -0.103174418716315
       -0.081799766976785
       -0.021301413974351
       -0.003517162352450
       -0.000386938042285
        0.000000000000000
       -0.001130208511117
       -0.005655727900515
       -0.017101343387290
       -0.031785252425098
       -0.026854822310273
       -0.010018526427735
       -0.002237178160322
        0.000000000000000
        0.000000000000000
        0.000000000000000
       -0.001429262519856
       -0.004118047012699
       -0.006626981482372
       -0.005742059111090
       -0.002719907648119
       -0.000710271088450
        0.000000000000000
        0.000000000000000
        0.000000000000000
        0.000000000000000
        0.000000000000000
       -0.000929324829319
       -0.000832160486808
        0.000000000000000
        0.000000000000000
        0.000000000000000
        0.000000000000000
        0.000000000000000
        0.000000000000000
        0.000000000000000
        0.000000000000000
        0.000000000000000
        0.000000000000000
        0.000000000000000
        0.000000000000000
        0.000000000000000
        0.000000000000000
       -0.000468344578820
       -0.000857081992871
       -0.000694535079815
       -0.000225043973311
        0.000000000000000
        0.000000000000000
        0.000000000000000
        0.000000000000000
       -0.000671769362381
       -0.002606305219990
       -0.005486474883907
       -0.005636614170274
       -0.002899421669780
       -0.000794130348566
        0.000000000000000
        0.000000000000000
        0.000000000000000
       -0.001749868390359
       -0.007354042323113
       -0.019209810486322
       -0.024071434983415
       -0.013596272252457
       -0.004460891198253
       -0.000881843267626
        0.000000000000000
        0.000000000000000
       -0.002347388805886
       -0.010622237774951
       -0.031592169056196
       -0.050548074619365
       -0.032027004308046
       -0.010599016230020
       -0.002247173145525
        0.000000000000000
        0.000000000000000
       -0.001600409171357
       -0.007708037274906
       -0.022470380118890
       -0.039547738380827
       -0.031662198668157
       -0.011635209194591
       -0.002592148977124
        0.000000000000000
        0.000000000000000
        0.000000000000000
       -0.003079477864195
       -0.009269506803379
       -0.015584639834698
       -0.013502776633797
       -0.005919053265567
       -0.001412045617304
        0.000000000000000
        0.000000000000000
        0.000000000000000
        0.000000000000000
       -0.002257208465672
       -0.003900026871595
       -0.003484935374613
       -0.001615470400865
        0.000000000000000
        0.000000000000000
        0.000000000000000
        0.000000000000000
        0.000000000000000
        0.000000000000000
        0.000000000000000
        0.000000000000000
        0.000000000000000
        0.000000000000000
        0.000000000000000
        0.000000000000000
        0.000000000000000
        0.000000000000000
        0.000000000000000
        0.000000000000000
        0.000000000000000
        0.000000000000000
        0.000000000000000
        0.000000000000000
        0.000000000000000
        0.000000000000000
        0.000000000000000
       -0.000442100184875
       -0.000450830683646
        0.000000000000000
        0.000000000000000
        0.000000000000000
        0.000000000000000
        0.000000000000000
        0.000000000000000
       -0.000981847486022
       -0.002075630642824
       -0.002334750342023
       -0.001371215122300
        0.000000000000000
        0.000000000000000
        0.000000000000000
        0.000000000000000
       -0.000666802109503
       -0.002485687552516
       -0.005487056909373
       -0.006821833623832
       -0.004543163691249
       -0.001728960407877
        0.000000000000000
        0.000000000000000
        0.000000000000000
       -0.000814373744786
       -0.003337830853514
       -0.007982766471091
       -0.011038850719298
       -0.008193094684251
       -0.003459430550138
       -0.000863291851293
        0.000000000000000
        0.000000000000000
        0.000000000000000
       -0.002292523265094
       -0.006152699297420
       -0.009354027531510
       -0.007668068406505
       -0.003492759194468
       -0.000904787078394
        0.000000000000000
        0.000000000000000
        0.000000000000000
        0.000000000000000
       -0.002650268550671
       -0.004462511061629
       -0.003902816104160
       -0.001791567571458
        0.000000000000000
        0.000000000000000
        0.000000000000000
        0.000000000000000
        0.000000000000000
        0.000000000000000
       -0.001226834912433
       -0.001129489003022
        0.000000000000000
        0.000000000000000
        0.000000000000000
        0.000000000000000
        0.000000000000000
        0.000000000000000
        0.000000000000000
        0.000000000000000
        0.000000000000000
        0.000000000000000
        0.000000000000000
        0.000000000000000
        0.000000000000000
        0.000000000000000
        0.000000000000000
        0.000000000000000
        0.000000000000000
        0.000000000000000
        0.000000000000000
        0.000000000000000
        0.000000000000000
        0.000000000000000
        0.000000000000000
        0.000000000000000
        0.000000000000000
        0.000000000000000
        0.000000000000000
        0.000000000000000
        0.000000000000000
        0.000000000000000
        0.000000000000000
        0.000000000000000
        0.000000000000000
        0.000000000000000
        0.000000000000000
        0.000000000000000
        0.000000000000000
        0.000000000000000
        0.000000000000000
        0.000000000000000
        0.000000000000000
        0.000000000000000
       -0.000958481381477
       -0.001133400080762
        0.000000000000000
        0.000000000000000
        0.000000000000000
        0.000000000000000
        0.000000000000000
        0.000000000000000
        0.000000000000000
       -0.001245491976105
       -0.001902285730767
       -0.001306599557232
        0.000000000000000
        0.000000000000000
        0.000000000000000
        0.000000000000000
        0.000000000000000
        0.000000000000000
        0.000000000000000
       -0.001418691452575
       -0.001217572782164
        0.000000000000000
        0.000000000000000
        0.000000000000000
        0.000000000000000
        0.000000000000000
        0.000000000000000
        0.000000000000000
        0.000000000000000
        0.000000000000000
        0.000000000000000
        0.000000000000000
        0.000000000000000
        0.000000000000000
        0.000000000000000
        0.000000000000000
        0.000000000000000
        0.000000000000000
        0.000000000000000
        0.000000000000000
        0.000000000000000
        0.000000000000000
        0.000000000000000
        0.000000000000000
        0.000000000000000
        0.000000000000000
        0.000000000000000
        0.000000000000000
        0.000000000000000
        0.000000000000000
        0.000000000000000
END_DATAGRID_3D
END_BLOCK_DATAGRID_3D
