ATOMS
         C    7.558905    7.558905    7.558905
         H    8.755769    8.755769    8.755769
         H    6.362040    6.362040    8.755769
         H    8.755769    6.362040    6.362040
         H    6.362040    8.755769    6.362040
BEGIN_BLOCK_DATAGRID_3D
units: coords = b, function = sqrt(b^-3)
BEGIN_DATAGRID_3D_function
      9      9      9
0.0 0.0 0.0
   15.117809    0.000000    0.000000
    0.000000   15.117809    0.000000
    0.000000    0.000000   15.117809
        0.000000000000000
        0.000000000000000
        0.000000000000000
        0.000000000000000
        0.000000000000000
        0.000000000000000
        0.000000000000000
        0.000000000000000
        0.000000000000000
        0.000000000000000
        0.000000000000000
        0.000000000000000
        0.000000000000000
        0.000000000000000
        0.000000000000000
        0.000000000000000
        0.000000000000000
        0.000000000000000
        0.000000000000000
        0.000000000000000
        0.000000000000000
        0.000000000000000
        0.000000000000000
        0.000000000000000
        0.000000000000000
        0.000000000000000
        0.000000000000000
        0.000000000000000
        0.000000000000000
        0.000000000000000
        0.000000000000000
        0.000139340128137
        0.000317602684198
        0.000000000000000
        0.000000000000000
        0.000000000000000
        0.000000000000000
        0.000000000000000
        0.000000000000000
       -0.000108603536327
        0.000231051278637
        0.000418580109478
        0.000000000000000
        0.000000000000000
        0.000000000000000
        0.000000000000000
        0.000000000000000
        0.000000000000000
       -0.000053299541530
        0.000170636445014
        0.000000000000000
        0.000000000000000
        0.000000000000000
        0.000000000000000
        0.000000000000000
        0.000000000000000
        0.000000000000000
        0.000000000000000
        0.000000000000000
        0.000000000000000
        0.000000000000000
        0.000000000000000
        0.000000000000000
        0.000000000000000
        0.000000000000000
        0.000000000000000
        0.000000000000000
        0.000000000000000
        0.000000000000000
        0.000000000000000
        0.000000000000000
        0.000000000000000
        0.000000000000000
        0.000000000000000
        0.000000000000000
        0.000000000000000
        0.000000000000000
        0.000000000000000
        0.000000000000000
        0.000000000000000
        0.000000000000000
        0.000000000000000
        0.000000000000000
        0.000000000000000
        0.000000000000000
        0.000000000000000
        0.000000000000000
        0.000000000000000
        0.000000000000000
        0.000000000000000
        0.000000000000000
        0.000000000000000
        0.000000000000000
        0.000000000000000
       -0.000055709990807
        0.000146736756786
        0.000000000000000
        0.000000000000000
        0.000000000000000
        0.000000000000000
        0.000000000000000
        0.000000000000000
       -0.000647278240610
       -0.000031607210584
        0.000866654765214
        0.000748006530503
        0.000000000000000
        0.000000000000000
        0.000000000000000
        0.000000000000000
       -0.001159408409005
       -0.001355254725586
        0.000517832163827
        0.002360022777549
        0.001888176289685
        0.000706507479270
        0.000000000000000
        0.000000000000000
       -0.000646168665625
       -0.001641642863311
       -0.001445196242418
        0.001340776799262
        0.003409913394291
        0.002467236996276
        0.000849937623585
        0.000000000000000
        0.000000000000000
       -0.000515622542542
       -0.001162035235892
       -0.000762203650954
        0.001446884988046
        0.002654372297511
        0.001647857084003
        0.000000000000000
        0.000000000000000
        0.000000000000000
        0.000000000000000
       -0.000411148042392
       -0.000140513711420
        0.000857201343549
        0.001135726915607
        0.000000000000000
        0.000000000000000
        0.000000000000000
        0.000000000000000
        0.000000000000000
        0.000000000000000
        0.000044148179942
        0.000259478948767
        0.000000000000000
        0.000000000000000
        0.000000000000000
        0.000000000000000
        0.000000000000000
        0.000000000000000
        0.000000000000000
        0.000000000000000
        0.000000000000000
        0.000000000000000
        0.000000000000000
        0.000000000000000
        0.000000000000000
        0.000000000000000
        0.000000000000000
        0.000000000000000
        0.000000000000000
        0.000000000000000
        0.000000000000000
        0.000000000000000
        0.000000000000000
        0.000000000000000
        0.000000000000000
        0.000000000000000
        0.000000000000000
       -0.001092266956425
       -0.000668403280555
        0.000393566257115
        0.000548644507262
        0.000000000000000
        0.000000000000000
        0.000000000000000
        0.000000000000000
       -0.002611350858006
       -0.004132861215005
       -0.001369290799545
        0.003228110891075
        0.002888926036684
        0.001055410251498
        0.000000000000000
        0.000000000000000
       -0.002032507811473
       -0.006368182503090
       -0.008863131701257
        0.000190269150268
        0.012002558981015
        0.007880539108871
        0.002617649061806
        0.000000000000000
        0.000000000000000
       -0.002891081890471
       -0.008473216148022
       -0.011198523999980
        0.006139559943368
        0.018925697217922
        0.011050745797134
        0.003449136548865
        0.000000000000000
        0.000000000000000
       -0.002090268422612
       -0.005574108075631
       -0.005823654007969
        0.007536904067674
        0.013243780734043
        0.007846218340659
        0.002334001740935
        0.000000000000000
        0.000000000000000
       -0.000802310463326
       -0.001853437546669
       -0.000921679857835
        0.003946820448657
        0.005610897052573
        0.003081838606520
        0.000000000000000
        0.000000000000000
        0.000000000000000
        0.000000000000000
       -0.000295544719090
        0.000133814382080
        0.001226457938949
        0.001393760885887
        0.000000000000000
        0.000000000000000
        0.000000000000000
        0.000000000000000
        0.000000000000000
        0.000000000000000
        0.000000000000000
        0.000000000000000
        0.000000000000000
        0.000000000000000
        0.000000000000000
        0.000000000000000
        0.000000000000000
        0.000000000000000
        0.000000000000000
        0.000000000000000
       -0.000414678541162
       -0.000118727864021
        0.000000000000000
        0.000000000000000
        0.000000000000000
        0.000000000000000
        0.000000000000000
       -0.002136717744393
       -0.003658712496710
       -0.002569494089054
        0.000179561225422
        0.001013220448959
        0.000486293257897
        0.000000000000000
        0.000000000000000
       -0.002564828431046
       -0.008691630107721
       -0.014941491859269
       -0.008597747717401
        0.006560062239216
        0.006050270364319
        0.002215781729178
        0.000000000000000
        0.000000000000000
       -0.005874802148028
       -0.020789305182358
       -0.039855283362301
       -0.013252823913635
        0.039924201728105
        0.020394547197875
        0.005722157569883
        0.000990396990381
       -0.001195627435876
       -0.007502749188845
       -0.028441236013433
       -0.057771376856185
        0.016287658912273
        0.074765843364087
        0.032476267388528
        0.008170376609050
        0.001272842108198
       -0.000909411005457
       -0.005040423773410
       -0.016502218394692
       -0.025614021807421
        0.030247290421538
        0.047036019906386
        0.022616230409963
        0.006206159536049
        0.000000000000000
        0.000000000000000
       -0.001857239090230
       -0.004512796869187
       -0.002667733436032
        0.012632779092495
        0.016768417086875
        0.009193507359126
        0.002642676541100
        0.000000000000000
        0.000000000000000
       -0.000387927731790
       -0.000654677810011
        0.000502172571052
        0.003237121509258
        0.003990069884732
        0.002214565854448
        0.000000000000000
        0.000000000000000
        0.000000000000000
        0.000000000000000
        0.000000000000000
        0.000199713848944
        0.000491893213483
        0.000000000000000
        0.000000000000000
        0.000000000000000
        0.000000000000000
        0.000000000000000
        0.000000000000000
        0.000000000000000
       -0.000920340913158
       -0.000868842831820
       -0.000245291777571
        0.000000000000000
        0.000000000000000
        0.000000000000000
        0.000000000000000
       -0.001259905850052
       -0.003951949359115
       -0.006572942220473
       -0.005041843169968
       -0.000815159780203
        0.000847393744228
        0.000493655173947
        0.000000000000000
        0.000000000000000
       -0.004564592316304
       -0.015857209859517
       -0.031824330945350
       -0.023087137534086
        0.002767148919620
        0.006164694100057
        0.002466089366788
        0.000000000000000
       -0.001453346143408
       -0.009543168914020
       -0.040279026091135
       -0.104045049346716
       -0.061247943644906
        0.040139233749923
        0.025105735957894
        0.007032629687436
        0.001162988890448
       -0.001927018929635
       -0.011182375998230
       -0.051205292177034
       -0.135842689244156
       -0.000000000000000
        0.135842689244157
        0.051205292177035
        0.011182375998230
        0.001927018929635
       -0.001131927254463
       -0.006843008065254
       -0.024167313056457
       -0.037692572071887
        0.061247943644906
        0.101598387668681
        0.039340603189699
        0.009353547291837
        0.001422284507424
        0.000000000000000
       -0.002321045935966
       -0.005639959317949
       -0.001828726018183
        0.023087137534086
        0.030885908043914
        0.015332475077409
        0.004419548885482
        0.000000000000000
        0.000000000000000
       -0.000439572471714
       -0.000702350313406
        0.001004781402385
        0.005041843169968
        0.006383320598291
        0.003806905928293
        0.001205823147818
        0.000000000000000
        0.000000000000000
        0.000000000000000
        0.000000000000000
        0.000276353413555
        0.000868842831820
        0.000889279277174
        0.000000000000000
        0.000000000000000
        0.000000000000000
        0.000000000000000
        0.000000000000000
        0.000000000000000
       -0.000875154932424
       -0.000750954149567
        0.000000000000000
        0.000000000000000
        0.000000000000000
        0.000000000000000
        0.000000000000000
       -0.001204094994190
       -0.003743793736412
       -0.006187983697154
       -0.004818607911622
       -0.001226475746850
        0.000299960412920
        0.000000000000000
        0.000000000000000
        0.000000000000000
       -0.004198938415033
       -0.014723349700374
       -0.029795152414832
       -0.020459434308330
       -0.001531455329353
        0.003133639473699
        0.001431093785668
        0.000000000000000
       -0.001294935848133
       -0.008285742267483
       -0.035031220059755
       -0.093736053882627
       -0.050652991683158
        0.012852916137531
        0.013919354504578
        0.004628769262812
        0.000000000000000
       -0.001389645961995
       -0.008883427790428
       -0.036005103134159
       -0.083966244562418
       -0.016287658912272
        0.066971778054517
        0.031970071759065
        0.008215800370224
        0.001312431289673
        0.000000000000000
       -0.004960126650834
       -0.015746279732183
       -0.020033652681615
        0.033658525175257
        0.079425873961944
        0.031138891256572
        0.007604008471009
        0.001213949863210
        0.000000000000000
       -0.001508941895723
       -0.003635516725104
       -0.000295469898252
        0.016424402933236
        0.025902823611649
        0.013185876205242
        0.003840395776085
        0.000000000000000
        0.000000000000000
        0.000000000000000
       -0.000377808522975
        0.000895118358829
        0.004150980491418
        0.005506249900681
        0.003385251097464
        0.001105729468083
        0.000000000000000
        0.000000000000000
        0.000000000000000
        0.000000000000000
        0.000000000000000
        0.000673739477245
        0.000794168947501
        0.000000000000000
        0.000000000000000
        0.000000000000000
        0.000000000000000
        0.000000000000000
        0.000000000000000
        0.000000000000000
        0.000000000000000
        0.000000000000000
        0.000000000000000
        0.000000000000000
        0.000000000000000
        0.000000000000000
        0.000000000000000
       -0.001815363672201
       -0.003124139544568
       -0.002436152334332
       -0.000744490375048
        0.000000000000000
        0.000000000000000
        0.000000000000000
        0.000000000000000
       -0.002007164069894
       -0.006782766214882
       -0.011901190227130
       -0.008323224959915
       -0.001425129419017
        0.000842133608197
        0.000000000000000
        0.000000000000000
        0.000000000000000
       -0.003965909082651
       -0.013662038493930
       -0.026639231842895
       -0.015363559283509
        0.001993181023478
        0.004480928492167
        0.001739768585834
        0.000000000000000
        0.000000000000000
       -0.003994556361799
       -0.013023953029443
       -0.022454532963553
       -0.006139559943368
        0.014727359745612
        0.010446423380331
        0.003436501703405
        0.000000000000000
        0.000000000000000
       -0.002041262515295
       -0.005958964329735
       -0.006373830056264
        0.007636386065567
        0.020460326869850
        0.011355607460690
        0.003438528443457
        0.000000000000000
        0.000000000000000
        0.000000000000000
       -0.001312621356711
       -0.000052906418551
        0.005745695310803
        0.009594759193890
        0.005747277724867
        0.001754064281722
        0.000000000000000
        0.000000000000000
        0.000000000000000
        0.000000000000000
        0.000442996445586
        0.001878097675937
        0.002596758905374
        0.001562263884029
        0.000000000000000
        0.000000000000000
        0.000000000000000
        0.000000000000000
        0.000000000000000
        0.000000000000000
        0.000000000000000
        0.000000000000000
        0.000000000000000
        0.000000000000000
        0.000000000000000
        0.000000000000000
        0.000000000000000
        0.000000000000000
        0.000000000000000
        0.000000000000000
        0.000000000000000
        0.000000000000000
        0.000000000000000
        0.000000000000000
        0.000000000000000
        0.000000000000000
        0.000000000000000
       -0.000864538493080
       -0.000710540685298
        0.000000000000000
        0.000000000000000
        0.000000000000000
        0.000000000000000
        0.000000000000000
        0.000000000000000
       -0.001699760348900
       -0.002849811451068
       -0.002066895738932
       -0.000486456404768
        0.000000000000000
        0.000000000000000
        0.000000000000000
        0.000000000000000
       -0.001076400183437
       -0.003236436310531
       -0.004923607475149
       -0.003028371390410
        0.000109221840370
        0.000866669183366
        0.000000000000000
        0.000000000000000
        0.000000000000000
       -0.001053309656140
       -0.003012656809210
       -0.004122964575670
       -0.001340776799262
        0.002158247423797
        0.002187062676244
        0.000849540698181
        0.000000000000000
        0.000000000000000
        0.000000000000000
       -0.001355117858363
       -0.001408339412295
        0.001063654238537
        0.003325788348554
        0.002510295256737
        0.000885515246709
        0.000000000000000
        0.000000000000000
        0.000000000000000
        0.000000000000000
       -0.000001992270229
        0.001241301605967
        0.002123670397275
        0.001362901860788
        0.000000000000000
        0.000000000000000
        0.000000000000000
        0.000000000000000
        0.000000000000000
        0.000000000000000
        0.000506771727338
        0.000673653556351
        0.000000000000000
        0.000000000000000
        0.000000000000000
        0.000000000000000
        0.000000000000000
        0.000000000000000
        0.000000000000000
        0.000000000000000
        0.000000000000000
        0.000000000000000
        0.000000000000000
        0.000000000000000
        0.000000000000000
        0.000000000000000
        0.000000000000000
        0.000000000000000
        0.000000000000000
        0.000000000000000
        0.000000000000000
        0.000000000000000
        0.000000000000000
        0.000000000000000
        0.000000000000000
        0.000000000000000
        0.000000000000000
        0.000000000000000
        0.000000000000000
        0.000000000000000
        0.000000000000000
        0.000000000000000
        0.000000000000000
        0.000000000000000
        0.000000000000000
        0.000000000000000
        0.000000000000000
        0.000000000000000
        0.000000000000000
        0.000000000000000
        0.000000000000000
        0.000000000000000
        0.000000000000000
        0.000000000000000
       -0.000622141541950
       -0.000429697381097
        0.000000000000000
        0.000000000000000
        0.000000000000000
        0.000000000000000
        0.000000000000000
        0.000000000000000
        0.000000000000000
       -0.000535383963275
       -0.000231051278637
        0.000225407390124
        0.000000000000000
        0.000000000000000
        0.000000000000000
        0.000000000000000
        0.000000000000000
        0.000000000000000
        0.000000000000000
        0.000119720807947
        0.000357838399283
        0.000000000000000
        0.000000000000000
        0.000000000000000
        0.000000000000000
        0.000000000000000
        0.000000000000000
        0.000000000000000
        0.000000000000000
        0.000000000000000
        0.000000000000000
        0.000000000000000
        0.000000000000000
        0.000000000000000
        0.000000000000000
        0.000000000000000
        0.000000000000000
        0.000000000000000
        0.000000000000000
        0.000000000000000
        0.000000000000000
        0.000000000000000
        0.000000000000000
        0.000000000000000
        0.000000000000000
        0.000000000000000
        0.000000000000000
        0.000000000000000
        0.000000000000000
        0.000000000000000
        0.000000000000000
END_DATAGRID_3D
END_BLOCK_DATAGRID_3D
