ATOMS
         C    7.558905    7.558905    7.558905
         H    8.755769    8.755769    8.755769
         H    6.362040    6.362040    8.755769
         H    8.755769    6.362040    6.362040
         H    6.362040    8.755769    6.362040
BEGIN_BLOCK_DATAGRID_3D
units: coords = b, function = 1/hbar/H*b^-2
BEGIN_DATAGRID_3D_function
      9      9      9
0.0 0.0 0.0
   15.117809    0.000000    0.000000
    0.000000   15.117809    0.000000
    0.000000    0.000000   15.117809
        0.000000000000000
        0.000000000000000
        0.000000000000000
        0.000000000000000
        0.000000000000000
        0.000000000000000
        0.000000000000000
        0.000000000000000
        0.000000000000000
        0.000000000000000
        0.000000000000000
        0.000000000000000
        0.000000000000000
        0.000000000000000
        0.000000000000000
        0.000000000000000
        0.000000000000000
        0.000000000000000
        0.000000000000000
        0.000000000000000
        0.000000000000000
        0.000000000000000
        0.000000000000000
        0.000000000000000
        0.000000000000000
        0.000000000000000
        0.000000000000000
        0.000000000000000
        0.000000000000000
        0.000000000000000
        0.000000000000000
       -0.000000000159053
        0.000000000109054
        0.000000000000000
        0.000000000000000
        0.000000000000000
        0.000000000000000
        0.000000000000000
        0.000000000000000
       -0.000000000068631
       -0.000000000002718
        0.000000000067420
        0.000000000000000
        0.000000000000000
        0.000000000000000
        0.000000000000000
        0.000000000000000
        0.000000000000000
       -0.000000000111140
        0.000000000157836
        0.000000000000000
        0.000000000000000
        0.000000000000000
        0.000000000000000
        0.000000000000000
        0.000000000000000
        0.000000000000000
        0.000000000000000
        0.000000000000000
        0.000000000000000
        0.000000000000000
        0.000000000000000
        0.000000000000000
        0.000000000000000
        0.000000000000000
        0.000000000000000
        0.000000000000000
        0.000000000000000
        0.000000000000000
        0.000000000000000
        0.000000000000000
        0.000000000000000
        0.000000000000000
        0.000000000000000
        0.000000000000000
        0.000000000000000
        0.000000000000000
        0.000000000000000
        0.000000000000000
        0.000000000000000
        0.000000000000000
        0.000000000000000
        0.000000000000000
        0.000000000000000
        0.000000000000000
        0.000000000000000
        0.000000000000000
        0.000000000000000
        0.000000000000000
        0.000000000000000
        0.000000000000000
        0.000000000000000
        0.000000000000000
        0.000000000000000
       -0.000000000118732
        0.000000000111253
        0.000000000000000
        0.000000000000000
        0.000000000000000
        0.000000000000000
        0.000000000000000
        0.000000000000000
       -0.000000000312934
        0.000000000052318
       -0.000000000046533
        0.000000000202102
        0.000000000000000
        0.000000000000000
        0.000000000000000
        0.000000000000000
       -0.000000000189680
       -0.000000000608398
       -0.000000001610902
        0.000000000940008
        0.000000000826090
       -0.000000000058909
        0.000000000000000
        0.000000000000000
        0.000000000028828
       -0.000000000288956
       -0.000000003066001
        0.000000000030446
        0.000000003078582
        0.000000000294964
       -0.000000000026243
        0.000000000000000
        0.000000000000000
        0.000000000060824
       -0.000000000826499
       -0.000000000935745
        0.000000001621239
        0.000000000612678
        0.000000000186740
        0.000000000000000
        0.000000000000000
        0.000000000000000
        0.000000000000000
       -0.000000000198962
        0.000000000045066
       -0.000000000046363
        0.000000000309944
        0.000000000000000
        0.000000000000000
        0.000000000000000
        0.000000000000000
        0.000000000000000
        0.000000000000000
       -0.000000000109356
        0.000000000121199
        0.000000000000000
        0.000000000000000
        0.000000000000000
        0.000000000000000
        0.000000000000000
        0.000000000000000
        0.000000000000000
        0.000000000000000
        0.000000000000000
        0.000000000000000
        0.000000000000000
        0.000000000000000
        0.000000000000000
        0.000000000000000
        0.000000000000000
        0.000000000000000
        0.000000000000000
        0.000000000000000
        0.000000000000000
        0.000000000000000
        0.000000000000000
        0.000000000000000
        0.000000000000000
        0.000000000000000
        0.000000000000000
       -0.000000000218446
       -0.000000000130560
        0.000000000105687
        0.000000000120613
        0.000000000000000
        0.000000000000000
        0.000000000000000
        0.000000000000000
       -0.000000000416835
        0.000000000067026
        0.000000000718204
       -0.000000001179224
       -0.000000000243864
        0.000000000057030
        0.000000000000000
        0.000000000000000
        0.000000000043875
       -0.000000001017156
        0.000000014067841
        0.000000025877129
       -0.000000017921404
       -0.000000015790505
        0.000000001012013
        0.000000000000000
        0.000000000000000
       -0.000000000448015
        0.000000006127161
        0.000000061065537
       -0.000000000664209
       -0.000000061259951
       -0.000000006138961
        0.000000000456187
        0.000000000000000
        0.000000000000000
       -0.000000001009362
        0.000000015810435
        0.000000018363128
       -0.000000025990781
       -0.000000014114637
        0.000000001018847
       -0.000000000046260
        0.000000000000000
        0.000000000000000
       -0.000000000055458
        0.000000000236878
        0.000000001239131
       -0.000000000718813
       -0.000000000069799
        0.000000000406564
        0.000000000000000
        0.000000000000000
        0.000000000000000
        0.000000000000000
       -0.000000000119563
       -0.000000000107142
        0.000000000136510
        0.000000000215502
        0.000000000000000
        0.000000000000000
        0.000000000000000
        0.000000000000000
        0.000000000000000
        0.000000000000000
        0.000000000000000
        0.000000000000000
        0.000000000000000
        0.000000000000000
        0.000000000000000
        0.000000000000000
        0.000000000000000
        0.000000000000000
        0.000000000000000
        0.000000000000000
       -0.000000000063139
        0.000000000004551
        0.000000000000000
        0.000000000000000
        0.000000000000000
        0.000000000000000
        0.000000000000000
       -0.000000000138180
       -0.000000000304031
        0.000000000155724
       -0.000000000172595
        0.000000000180666
       -0.000000000000382
        0.000000000000000
        0.000000000000000
       -0.000000000055266
       -0.000000000236122
        0.000000002880979
       -0.000000001753434
       -0.000000005230411
       -0.000000000773553
        0.000000000055566
        0.000000000000000
        0.000000000000000
       -0.000000000966509
        0.000000012551474
        0.000000044662246
       -0.000000073070156
       -0.000000140880550
       -0.000000009284635
        0.000000000685431
        0.000000000005184
        0.000000000006957
       -0.000000002949956
        0.000000051991257
        0.000000238081122
       -0.000000001762338
       -0.000000240056689
       -0.000000052086155
        0.000000002973367
       -0.000000000006130
       -0.000000000005069
       -0.000000000672438
        0.000000009347651
        0.000000139525198
        0.000000071700854
       -0.000000044967490
       -0.000000012574162
        0.000000000970011
        0.000000000000000
        0.000000000000000
       -0.000000000053626
        0.000000000795862
        0.000000005283559
        0.000000001792777
       -0.000000002878653
        0.000000000229333
        0.000000000053662
        0.000000000000000
        0.000000000000000
        0.000000000000049
       -0.000000000179351
        0.000000000182195
       -0.000000000146008
        0.000000000303347
        0.000000000136104
        0.000000000000000
        0.000000000000000
        0.000000000000000
        0.000000000000000
        0.000000000000000
       -0.000000000004428
        0.000000000063937
        0.000000000000000
        0.000000000000000
        0.000000000000000
        0.000000000000000
        0.000000000000000
        0.000000000000000
        0.000000000000000
        0.000000000004428
       -0.000000000188103
        0.000000000004551
        0.000000000000000
        0.000000000000000
        0.000000000000000
        0.000000000000000
       -0.000000000000049
       -0.000000000230510
        0.000000000127580
       -0.000000000122466
        0.000000000138174
       -0.000000000227641
       -0.000000000000382
        0.000000000000000
        0.000000000000000
       -0.000000000115791
        0.000000000772840
       -0.000000001920921
       -0.000000005027695
       -0.000000001948465
        0.000000000795496
       -0.000000000113870
        0.000000000000000
        0.000000000005069
       -0.000000001892496
        0.000000026478853
       -0.000000075429451
       -0.000000180545820
       -0.000000076877659
        0.000000026543517
       -0.000000001886662
        0.000000000005184
       -0.000000000000000
       -0.000000000000000
        0.000000000000000
        0.000000000000000
       -0.000000000000000
       -0.000000000000000
       -0.000000000000000
        0.000000000000000
       -0.000000000000000
       -0.000000000005069
        0.000000001892496
       -0.000000026478853
        0.000000075429451
        0.000000180545820
        0.000000076877659
       -0.000000026543517
        0.000000001886662
       -0.000000000005184
        0.000000000000000
        0.000000000115791
       -0.000000000772840
        0.000000001920921
        0.000000005027695
        0.000000001948465
       -0.000000000795496
        0.000000000113870
        0.000000000000000
        0.000000000000000
        0.000000000000049
        0.000000000230510
       -0.000000000127580
        0.000000000122466
       -0.000000000138174
        0.000000000227641
        0.000000000000382
        0.000000000000000
        0.000000000000000
        0.000000000000000
        0.000000000000000
       -0.000000000004428
        0.000000000188103
       -0.000000000004551
        0.000000000000000
        0.000000000000000
        0.000000000000000
        0.000000000000000
        0.000000000000000
        0.000000000000000
        0.000000000004428
       -0.000000000063937
        0.000000000000000
        0.000000000000000
        0.000000000000000
        0.000000000000000
        0.000000000000000
       -0.000000000000049
        0.000000000179351
       -0.000000000182195
        0.000000000146008
       -0.000000000303347
       -0.000000000136104
        0.000000000000000
        0.000000000000000
        0.000000000000000
        0.000000000053626
       -0.000000000795862
       -0.000000005283559
       -0.000000001792777
        0.000000002878653
       -0.000000000229333
       -0.000000000053662
        0.000000000000000
        0.000000000005069
        0.000000000672438
       -0.000000009347651
       -0.000000139525198
       -0.000000071700854
        0.000000044967490
        0.000000012574162
       -0.000000000970011
        0.000000000000000
       -0.000000000006957
        0.000000002949956
       -0.000000051991257
       -0.000000238081122
        0.000000001762338
        0.000000240056689
        0.000000052086155
       -0.000000002973367
        0.000000000006130
        0.000000000000000
        0.000000000966509
       -0.000000012551474
       -0.000000044662246
        0.000000073070156
        0.000000140880550
        0.000000009284635
       -0.000000000685431
       -0.000000000005184
        0.000000000000000
        0.000000000055266
        0.000000000236122
       -0.000000002880979
        0.000000001753434
        0.000000005230411
        0.000000000773553
       -0.000000000055566
        0.000000000000000
        0.000000000000000
        0.000000000000000
        0.000000000138180
        0.000000000304031
       -0.000000000155724
        0.000000000172595
       -0.000000000180666
        0.000000000000382
        0.000000000000000
        0.000000000000000
        0.000000000000000
        0.000000000000000
        0.000000000000000
        0.000000000063139
       -0.000000000004551
        0.000000000000000
        0.000000000000000
        0.000000000000000
        0.000000000000000
        0.000000000000000
        0.000000000000000
        0.000000000000000
        0.000000000000000
        0.000000000000000
        0.000000000000000
        0.000000000000000
        0.000000000000000
        0.000000000000000
        0.000000000000000
        0.000000000119563
        0.000000000107142
       -0.000000000136510
       -0.000000000215502
        0.000000000000000
        0.000000000000000
        0.000000000000000
        0.000000000000000
        0.000000000055458
       -0.000000000236878
       -0.000000001239131
        0.000000000718813
        0.000000000069799
       -0.000000000406564
        0.000000000000000
        0.000000000000000
        0.000000000000000
        0.000000001009362
       -0.000000015810435
       -0.000000018363128
        0.000000025990781
        0.000000014114637
       -0.000000001018847
        0.000000000046260
        0.000000000000000
        0.000000000000000
        0.000000000448015
       -0.000000006127161
       -0.000000061065537
        0.000000000664209
        0.000000061259951
        0.000000006138961
       -0.000000000456187
        0.000000000000000
        0.000000000000000
       -0.000000000043875
        0.000000001017156
       -0.000000014067841
       -0.000000025877129
        0.000000017921404
        0.000000015790505
       -0.000000001012013
        0.000000000000000
        0.000000000000000
        0.000000000000000
        0.000000000416835
       -0.000000000067026
       -0.000000000718204
        0.000000001179224
        0.000000000243864
       -0.000000000057030
        0.000000000000000
        0.000000000000000
        0.000000000000000
        0.000000000000000
        0.000000000218446
        0.000000000130560
       -0.000000000105687
       -0.000000000120613
        0.000000000000000
        0.000000000000000
        0.000000000000000
        0.000000000000000
        0.000000000000000
        0.000000000000000
        0.000000000000000
        0.000000000000000
        0.000000000000000
        0.000000000000000
        0.000000000000000
        0.000000000000000
        0.000000000000000
        0.000000000000000
        0.000000000000000
        0.000000000000000
        0.000000000000000
        0.000000000000000
        0.000000000000000
        0.000000000000000
        0.000000000000000
        0.000000000000000
        0.000000000000000
        0.000000000109356
       -0.000000000121199
        0.000000000000000
        0.000000000000000
        0.000000000000000
        0.000000000000000
        0.000000000000000
        0.000000000000000
        0.000000000198962
       -0.000000000045066
        0.000000000046363
       -0.000000000309944
        0.000000000000000
        0.000000000000000
        0.000000000000000
        0.000000000000000
       -0.000000000060824
        0.000000000826499
        0.000000000935745
       -0.000000001621239
       -0.000000000612678
       -0.000000000186740
        0.000000000000000
        0.000000000000000
        0.000000000000000
       -0.000000000028828
        0.000000000288956
        0.000000003066001
       -0.000000000030446
       -0.000000003078582
       -0.000000000294964
        0.000000000026243
        0.000000000000000
        0.000000000000000
        0.000000000000000
        0.000000000189680
        0.000000000608398
        0.000000001610902
       -0.000000000940008
       -0.000000000826090
        0.000000000058909
        0.000000000000000
        0.000000000000000
        0.000000000000000
        0.000000000000000
        0.000000000312934
       -0.000000000052318
        0.000000000046533
       -0.000000000202102
        0.000000000000000
        0.000000000000000
        0.000000000000000
        0.000000000000000
        0.000000000000000
        0.000000000000000
        0.000000000118732
       -0.000000000111253
        0.000000000000000
        0.000000000000000
        0.000000000000000
        0.000000000000000
        0.000000000000000
        0.000000000000000
        0.000000000000000
        0.000000000000000
        0.000000000000000
        0.000000000000000
        0.000000000000000
        0.000000000000000
        0.000000000000000
        0.000000000000000
        0.000000000000000
        0.000000000000000
        0.000000000000000
        0.000000000000000
        0.000000000000000
        0.000000000000000
        0.000000000000000
        0.000000000000000
        0.000000000000000
        0.000000000000000
        0.000000000000000
        0.000000000000000
        0.000000000000000
        0.000000000000000
        0.000000000000000
        0.000000000000000
        0.000000000000000
        0.000000000000000
        0.000000000000000
        0.000000000000000
        0.000000000000000
        0.000000000000000
        0.000000000000000
        0.000000000000000
        0.000000000000000
        0.000000000000000
        0.000000000000000
        0.000000000000000
        0.000000000111140
       -0.000000000157836
        0.000000000000000
        0.000000000000000
        0.000000000000000
        0.000000000000000
        0.000000000000000
        0.000000000000000
        0.000000000000000
        0.000000000068631
        0.000000000002718
       -0.000000000067420
        0.000000000000000
        0.000000000000000
        0.000000000000000
        0.000000000000000
        0.000000000000000
        0.000000000000000
        0.000000000000000
        0.000000000159053
       -0.000000000109054
        0.000000000000000
        0.000000000000000
        0.000000000000000
        0.000000000000000
        0.000000000000000
        0.000000000000000
        0.000000000000000
        0.000000000000000
        0.000000000000000
        0.000000000000000
        0.000000000000000
        0.000000000000000
        0.000000000000000
        0.000000000000000
        0.000000000000000
        0.000000000000000
        0.000000000000000
        0.000000000000000
        0.000000000000000
        0.000000000000000
        0.000000000000000
        0.000000000000000
        0.000000000000000
        0.000000000000000
        0.000000000000000
        0.000000000000000
        0.000000000000000
        0.000000000000000
        0.000000000000000
        0.000000000000000
END_DATAGRID_3D
END_BLOCK_DATAGRID_3D
