ATOMS
         C    7.558905    7.558905    7.558905
         H    8.755769    8.755769    8.755769
         H    6.362040    6.362040    8.755769
         H    8.755769    6.362040    6.362040
         H    6.362040    8.755769    6.362040
BEGIN_BLOCK_DATAGRID_3D
units: coords = b, function = sqrt(b^-3)
BEGIN_DATAGRID_3D_function
      9      9      9
0.0 0.0 0.0
   15.117809    0.000000    0.000000
    0.000000   15.117809    0.000000
    0.000000    0.000000   15.117809
        0.000000000000000
        0.000000000000000
        0.000000000000000
        0.000000000000000
        0.000000000000000
        0.000000000000000
        0.000000000000000
        0.000000000000000
        0.000000000000000
        0.000000000000000
        0.000000000000000
        0.000000000000000
        0.000000000000000
        0.000000000000000
        0.000000000000000
        0.000000000000000
        0.000000000000000
        0.000000000000000
        0.000000000000000
        0.000000000000000
        0.000000000000000
        0.000000000000000
        0.000000000000000
        0.000000000000000
        0.000000000000000
        0.000000000000000
        0.000000000000000
        0.000000000000000
        0.000000000000000
        0.000000000000000
        0.000000000000000
        0.000749867559655
        0.000522525477910
        0.000000000000000
        0.000000000000000
        0.000000000000000
        0.000000000000000
        0.000000000000000
        0.000000000000000
        0.001198528093451
        0.001499996188780
        0.000813960147413
        0.000000000000000
        0.000000000000000
        0.000000000000000
        0.000000000000000
        0.000000000000000
        0.000000000000000
        0.001193571106334
        0.001262565671302
        0.000000000000000
        0.000000000000000
        0.000000000000000
        0.000000000000000
        0.000000000000000
        0.000000000000000
        0.000000000000000
        0.000000000000000
        0.000000000000000
        0.000000000000000
        0.000000000000000
        0.000000000000000
        0.000000000000000
        0.000000000000000
        0.000000000000000
        0.000000000000000
        0.000000000000000
        0.000000000000000
        0.000000000000000
        0.000000000000000
        0.000000000000000
        0.000000000000000
        0.000000000000000
        0.000000000000000
        0.000000000000000
        0.000000000000000
        0.000000000000000
        0.000000000000000
        0.000000000000000
        0.000000000000000
        0.000000000000000
        0.000000000000000
        0.000000000000000
        0.000000000000000
        0.000000000000000
        0.000000000000000
        0.000000000000000
        0.000000000000000
        0.000000000000000
        0.000000000000000
        0.000000000000000
        0.000000000000000
        0.000000000000000
        0.000000000000000
        0.000023546960017
       -0.000043495876935
        0.000000000000000
        0.000000000000000
        0.000000000000000
        0.000000000000000
        0.000000000000000
        0.000000000000000
        0.000858855156557
        0.000937145152713
        0.000405596520195
        0.000045569102076
        0.000000000000000
        0.000000000000000
        0.000000000000000
        0.000000000000000
        0.001785623845916
        0.003757052831955
        0.004270403094654
        0.002363395757820
        0.000640226710243
        0.000085131391452
        0.000000000000000
        0.000000000000000
        0.001092188355050
        0.003850577517032
        0.007822059372680
        0.008704352300123
        0.004933937982440
        0.001510803208616
        0.000231597607674
        0.000000000000000
        0.000000000000000
        0.001155196374413
        0.004076365562793
        0.008011856908716
        0.008484739904072
        0.004676487138843
        0.001385581976793
        0.000000000000000
        0.000000000000000
        0.000000000000000
        0.000000000000000
        0.002142759509484
        0.004310137616408
        0.004422870475241
        0.002311771527243
        0.000000000000000
        0.000000000000000
        0.000000000000000
        0.000000000000000
        0.000000000000000
        0.000000000000000
        0.001283205684454
        0.001299589596727
        0.000000000000000
        0.000000000000000
        0.000000000000000
        0.000000000000000
        0.000000000000000
        0.000000000000000
        0.000000000000000
        0.000000000000000
        0.000000000000000
        0.000000000000000
        0.000000000000000
        0.000000000000000
        0.000000000000000
        0.000000000000000
        0.000000000000000
        0.000000000000000
        0.000000000000000
        0.000000000000000
        0.000000000000000
        0.000000000000000
        0.000000000000000
        0.000000000000000
        0.000000000000000
        0.000000000000000
        0.000000000000000
       -0.000265259195765
       -0.000671166666258
       -0.000788901899425
       -0.000457688265180
        0.000000000000000
        0.000000000000000
        0.000000000000000
        0.000000000000000
        0.000873135427337
        0.001400224536827
        0.000517037121489
       -0.001004833366713
       -0.000925238481308
       -0.000341113226270
        0.000000000000000
        0.000000000000000
        0.001436001066180
        0.005444385176150
        0.011681288350568
        0.012633353662693
        0.003941492000782
        0.000064541028827
       -0.000277495598908
        0.000000000000000
        0.000000000000000
        0.003350542277833
        0.013368641548493
        0.033233271365767
        0.039858568348744
        0.016937217612289
        0.003370861617171
        0.000275324560760
        0.000000000000000
        0.000000000000000
        0.003705217604090
        0.014918084317871
        0.036183417440304
        0.037532965643367
        0.016756831605780
        0.004151632077864
        0.000522144322846
        0.000000000000000
        0.000000000000000
        0.001986513417249
        0.007653442519084
        0.015984520769906
        0.016217209132574
        0.008193253421723
        0.002180429868277
        0.000000000000000
        0.000000000000000
        0.000000000000000
        0.000000000000000
        0.002102501057195
        0.004214636112536
        0.004294366016701
        0.002221999529348
        0.000000000000000
        0.000000000000000
        0.000000000000000
        0.000000000000000
        0.000000000000000
        0.000000000000000
        0.000000000000000
        0.000000000000000
        0.000000000000000
        0.000000000000000
        0.000000000000000
        0.000000000000000
        0.000000000000000
        0.000000000000000
        0.000000000000000
        0.000000000000000
       -0.000649270313224
       -0.000579262229777
        0.000000000000000
        0.000000000000000
        0.000000000000000
        0.000000000000000
        0.000000000000000
       -0.000684164650580
       -0.002062391337874
       -0.003527057217834
       -0.003142044321146
       -0.001568300412351
       -0.000470570409203
        0.000000000000000
        0.000000000000000
        0.000090273265493
       -0.000427343077574
       -0.003674765789961
       -0.009561997174445
       -0.009800589264166
       -0.004555381651930
       -0.001291560810709
        0.000000000000000
        0.000000000000000
        0.001946494439145
        0.006902472722442
        0.013323016934714
        0.004802612166091
       -0.012788570841791
       -0.006619069656159
       -0.001866759887155
       -0.000323952403440
        0.000763503005337
        0.005397218039240
        0.026327101937771
        0.085309541650290
        0.105738771179809
        0.025038311605858
       -0.000117927176979
       -0.001056622883952
       -0.000260929961299
        0.000851161950056
        0.006300903216683
        0.031908014530237
        0.105728000003993
        0.105531238249802
        0.033292619368051
        0.004958859443920
        0.000206277921397
        0.000000000000000
        0.000000000000000
        0.003624040799687
        0.014548513911896
        0.035084822869722
        0.035759567094160
        0.015530583379009
        0.003683047498243
        0.000414818482675
        0.000000000000000
        0.000000000000000
        0.001110711781238
        0.003899683976803
        0.007571702437345
        0.007861721161100
        0.004211801638508
        0.001188479036603
        0.000000000000000
        0.000000000000000
        0.000000000000000
        0.000000000000000
        0.000000000000000
        0.001105494510894
        0.001150751598618
        0.000000000000000
        0.000000000000000
        0.000000000000000
        0.000000000000000
        0.000000000000000
        0.000000000000000
        0.000000000000000
       -0.000852194623399
       -0.001277987731345
       -0.000862363748488
        0.000000000000000
        0.000000000000000
        0.000000000000000
        0.000000000000000
       -0.000459501045543
       -0.001988346053412
       -0.005133094979877
       -0.007415990850591
       -0.005733841949576
       -0.002577835197746
       -0.000667487864942
        0.000000000000000
        0.000000000000000
       -0.000880325318568
       -0.005292152070185
       -0.018875133851904
       -0.033958315854160
       -0.023862757013328
       -0.008962261934261
       -0.002205174618444
        0.000000000000000
        0.000111841316417
        0.000238630356588
       -0.003586453648781
       -0.031587214944577
       -0.090082942160123
       -0.062396723961439
       -0.018722967300260
       -0.003927261511031
       -0.000538104139488
        0.000635940717912
        0.003689273597279
        0.016885033393099
        0.044788496081380
        0.000007663823488
       -0.044751819218271
       -0.016867923506585
       -0.003681750919549
       -0.000634275616566
        0.000741315258078
        0.005167402840075
        0.024839000797465
        0.078320889796453
        0.090093021770423
        0.015702673736868
       -0.002505585609801
       -0.001467981605766
       -0.000312877861918
        0.000000000000000
        0.003151978166863
        0.012382080310622
        0.029971730309204
        0.033960743957669
        0.012776104279365
        0.001881612977806
       -0.000062088149585
        0.000000000000000
        0.000000000000000
        0.001020219961025
        0.003523493710979
        0.006969196225298
        0.007416363505714
        0.003899480936332
        0.001044862036306
        0.000107848893251
        0.000000000000000
        0.000000000000000
        0.000000000000000
        0.000000000000000
        0.001064526569766
        0.001278041008422
        0.000650190026972
        0.000000000000000
        0.000000000000000
        0.000000000000000
        0.000000000000000
        0.000000000000000
        0.000000000000000
       -0.000882784977437
       -0.001065332847811
        0.000000000000000
        0.000000000000000
        0.000000000000000
        0.000000000000000
        0.000000000000000
       -0.000585440953507
       -0.002448865253336
       -0.005696785215119
       -0.007340141678932
       -0.005122129201356
       -0.002016689791456
        0.000000000000000
        0.000000000000000
        0.000000000000000
       -0.001625953509366
       -0.008204162694793
       -0.024380537498121
       -0.033178099234503
       -0.020549770215503
       -0.007743003866956
       -0.001756173247318
        0.000000000000000
       -0.000123691280468
       -0.001904249233542
       -0.014913450070886
       -0.066375154047727
       -0.098798824518905
       -0.053021432395660
       -0.016992612175450
       -0.003773786579450
        0.000000000000000
        0.000089653569158
        0.000008815157423
       -0.005074554789087
       -0.038575866798414
       -0.105728691569507
       -0.071732361830428
       -0.021110625733081
       -0.004338620232846
       -0.000590052040107
        0.000000000000000
        0.001627900065746
        0.005146516359887
        0.006423852949431
       -0.011521864432274
       -0.026531549454454
       -0.010356501573561
       -0.002521031398418
       -0.000401664655582
        0.000000000000000
        0.001253635929970
        0.004492870857259
        0.008698993905178
        0.006983918367927
       -0.000894535487388
       -0.001780775276489
       -0.000702654123539
        0.000000000000000
        0.000000000000000
        0.000000000000000
        0.001513471971019
        0.002973693961315
        0.003006048576606
        0.001268797808760
        0.000119526040060
       -0.000053687832462
        0.000000000000000
        0.000000000000000
        0.000000000000000
        0.000000000000000
        0.000000000000000
        0.000563908281504
        0.000356710388478
        0.000000000000000
        0.000000000000000
        0.000000000000000
        0.000000000000000
        0.000000000000000
        0.000000000000000
        0.000000000000000
        0.000000000000000
        0.000000000000000
        0.000000000000000
        0.000000000000000
        0.000000000000000
        0.000000000000000
        0.000000000000000
       -0.001406253029947
       -0.003228540327918
       -0.003895481734576
       -0.002435861068117
        0.000000000000000
        0.000000000000000
        0.000000000000000
        0.000000000000000
       -0.001059581852918
       -0.004804918326794
       -0.011756193726569
       -0.014774053049683
       -0.009571926370301
       -0.003472806146038
        0.000000000000000
        0.000000000000000
        0.000000000000000
       -0.001707130313770
       -0.008573733100768
       -0.025479132068704
       -0.034951497783710
       -0.021776018442273
       -0.008211588446577
       -0.001863499087489
        0.000000000000000
        0.000000000000000
       -0.001078889429539
       -0.006278713308056
       -0.022136674908466
       -0.039856140245234
       -0.028023870346252
       -0.010451510573626
       -0.002542587328789
        0.000000000000000
        0.000000000000000
       -0.000092091870716
       -0.001378857396466
       -0.006657060235352
       -0.015211432469210
       -0.014636616752337
       -0.006400697957246
       -0.001716719335340
        0.000000000000000
        0.000000000000000
        0.000000000000000
        0.000420936926707
       -0.000019981930617
       -0.001959015002500
       -0.003219856594260
       -0.001919427634882
       -0.000584049677021
        0.000000000000000
        0.000000000000000
        0.000000000000000
        0.000000000000000
        0.000479343039707
        0.000272543252292
       -0.000196337055236
       -0.000237656671498
        0.000000000000000
        0.000000000000000
        0.000000000000000
        0.000000000000000
        0.000000000000000
        0.000000000000000
        0.000000000000000
        0.000000000000000
        0.000000000000000
        0.000000000000000
        0.000000000000000
        0.000000000000000
        0.000000000000000
        0.000000000000000
        0.000000000000000
        0.000000000000000
        0.000000000000000
        0.000000000000000
        0.000000000000000
        0.000000000000000
        0.000000000000000
        0.000000000000000
        0.000000000000000
       -0.001012687899023
       -0.001150867191952
        0.000000000000000
        0.000000000000000
        0.000000000000000
        0.000000000000000
        0.000000000000000
        0.000000000000000
       -0.001446511482236
       -0.003324041831790
       -0.004023986193116
       -0.002525633066012
        0.000000000000000
        0.000000000000000
        0.000000000000000
        0.000000000000000
       -0.000629925546682
       -0.002625546839325
       -0.006136939686489
       -0.007963160421903
       -0.005586814701691
       -0.002213792731645
        0.000000000000000
        0.000000000000000
        0.000000000000000
       -0.000531469439569
       -0.002315429859465
       -0.005985958127258
       -0.008703979645000
       -0.006768298995684
       -0.003043776370056
       -0.000791236579364
        0.000000000000000
        0.000000000000000
        0.000000000000000
       -0.000956316525477
       -0.002845750208515
       -0.004791411735882
       -0.004236642270205
       -0.002089001082534
       -0.000609389633117
        0.000000000000000
        0.000000000000000
        0.000000000000000
        0.000000000000000
       -0.000644771312615
       -0.001335768566679
       -0.001390835474856
       -0.000740914038754
        0.000000000000000
        0.000000000000000
        0.000000000000000
        0.000000000000000
        0.000000000000000
        0.000000000000000
       -0.000172200905672
       -0.000226839754075
        0.000000000000000
        0.000000000000000
        0.000000000000000
        0.000000000000000
        0.000000000000000
        0.000000000000000
        0.000000000000000
        0.000000000000000
        0.000000000000000
        0.000000000000000
        0.000000000000000
        0.000000000000000
        0.000000000000000
        0.000000000000000
        0.000000000000000
        0.000000000000000
        0.000000000000000
        0.000000000000000
        0.000000000000000
        0.000000000000000
        0.000000000000000
        0.000000000000000
        0.000000000000000
        0.000000000000000
        0.000000000000000
        0.000000000000000
        0.000000000000000
        0.000000000000000
        0.000000000000000
        0.000000000000000
        0.000000000000000
        0.000000000000000
        0.000000000000000
        0.000000000000000
        0.000000000000000
        0.000000000000000
        0.000000000000000
        0.000000000000000
        0.000000000000000
        0.000000000000000
        0.000000000000000
        0.000000000000000
       -0.000970861572877
       -0.001177146920495
        0.000000000000000
        0.000000000000000
        0.000000000000000
        0.000000000000000
        0.000000000000000
        0.000000000000000
        0.000000000000000
       -0.000986196147083
       -0.001499942911703
       -0.001026133868929
        0.000000000000000
        0.000000000000000
        0.000000000000000
        0.000000000000000
        0.000000000000000
        0.000000000000000
        0.000000000000000
       -0.000835229591375
       -0.000745077319210
        0.000000000000000
        0.000000000000000
        0.000000000000000
        0.000000000000000
        0.000000000000000
        0.000000000000000
        0.000000000000000
        0.000000000000000
        0.000000000000000
        0.000000000000000
        0.000000000000000
        0.000000000000000
        0.000000000000000
        0.000000000000000
        0.000000000000000
        0.000000000000000
        0.000000000000000
        0.000000000000000
        0.000000000000000
        0.000000000000000
        0.000000000000000
        0.000000000000000
        0.000000000000000
        0.000000000000000
        0.000000000000000
        0.000000000000000
        0.000000000000000
        0.000000000000000
        0.000000000000000
        0.000000000000000
END_DATAGRID_3D
END_BLOCK_DATAGRID_3D
