ATOMS
         C    7.558905    7.558905    7.558905
         H    8.755769    8.755769    8.755769
         H    6.362040    6.362040    8.755769
         H    8.755769    6.362040    6.362040
         H    6.362040    8.755769    6.362040
BEGIN_BLOCK_DATAGRID_3D
units: coords = b, function = 1/hbar/H*b^-2
BEGIN_DATAGRID_3D_function
      9      9      9
0.0 0.0 0.0
   15.117809    0.000000    0.000000
    0.000000   15.117809    0.000000
    0.000000    0.000000   15.117809
        0.000000000000000
        0.000000000000000
        0.000000000000000
        0.000000000000000
        0.000000000000000
        0.000000000000000
        0.000000000000000
        0.000000000000000
        0.000000000000000
        0.000000000000000
        0.000000000000000
        0.000000000000000
        0.000000000000000
        0.000000000000000
        0.000000000000000
        0.000000000000000
        0.000000000000000
        0.000000000000000
        0.000000000000000
        0.000000000000000
        0.000000000000000
        0.000000000000000
        0.000000000000000
        0.000000000000000
        0.000000000000000
        0.000000000000000
        0.000000000000000
        0.000000000000000
        0.000000000000000
        0.000000000000000
        0.000000000000000
       -0.000000000014277
        0.000000000001216
        0.000000000000000
        0.000000000000000
        0.000000000000000
        0.000000000000000
        0.000000000000000
        0.000000000000000
        0.000000000001323
       -0.000000000043649
        0.000000000001216
        0.000000000000000
        0.000000000000000
        0.000000000000000
        0.000000000000000
        0.000000000000000
        0.000000000000000
        0.000000000001323
       -0.000000000015216
        0.000000000000000
        0.000000000000000
        0.000000000000000
        0.000000000000000
        0.000000000000000
        0.000000000000000
        0.000000000000000
        0.000000000000000
        0.000000000000000
        0.000000000000000
        0.000000000000000
        0.000000000000000
        0.000000000000000
        0.000000000000000
        0.000000000000000
        0.000000000000000
        0.000000000000000
        0.000000000000000
        0.000000000000000
        0.000000000000000
        0.000000000000000
        0.000000000000000
        0.000000000000000
        0.000000000000000
        0.000000000000000
        0.000000000000000
        0.000000000000000
        0.000000000000000
        0.000000000000000
        0.000000000000000
        0.000000000000000
        0.000000000000000
        0.000000000000000
        0.000000000000000
        0.000000000000000
        0.000000000000000
        0.000000000000000
        0.000000000000000
        0.000000000000000
        0.000000000000000
        0.000000000000000
        0.000000000000000
        0.000000000000000
        0.000000000000000
       -0.000000000027736
        0.000000000027199
        0.000000000000000
        0.000000000000000
        0.000000000000000
        0.000000000000000
        0.000000000000000
        0.000000000000000
       -0.000000000052340
       -0.000000000026618
        0.000000000023209
        0.000000000028278
        0.000000000000000
        0.000000000000000
        0.000000000000000
        0.000000000000000
       -0.000000000033017
       -0.000000000067993
        0.000000000039991
       -0.000000000042725
        0.000000000042651
       -0.000000000000213
        0.000000000000000
        0.000000000000000
       -0.000000000000056
       -0.000000000052599
        0.000000000027280
       -0.000000000031474
        0.000000000036108
       -0.000000000051385
       -0.000000000000213
        0.000000000000000
        0.000000000000000
       -0.000000000000056
        0.000000000041871
       -0.000000000049432
        0.000000000035249
       -0.000000000068313
       -0.000000000030831
        0.000000000000000
        0.000000000000000
        0.000000000000000
        0.000000000000000
        0.000000000026440
        0.000000000025920
       -0.000000000032261
       -0.000000000049485
        0.000000000000000
        0.000000000000000
        0.000000000000000
        0.000000000000000
        0.000000000000000
        0.000000000000000
        0.000000000025235
       -0.000000000029449
        0.000000000000000
        0.000000000000000
        0.000000000000000
        0.000000000000000
        0.000000000000000
        0.000000000000000
        0.000000000000000
        0.000000000000000
        0.000000000000000
        0.000000000000000
        0.000000000000000
        0.000000000000000
        0.000000000000000
        0.000000000000000
        0.000000000000000
        0.000000000000000
        0.000000000000000
        0.000000000000000
        0.000000000000000
        0.000000000000000
        0.000000000000000
        0.000000000000000
        0.000000000000000
        0.000000000000000
        0.000000000000000
       -0.000000000074682
        0.000000000019299
       -0.000000000014670
        0.000000000047509
        0.000000000000000
        0.000000000000000
        0.000000000000000
        0.000000000000000
       -0.000000000100085
        0.000000000016765
        0.000000000140678
       -0.000000000259810
       -0.000000000042905
        0.000000000012289
        0.000000000000000
        0.000000000000000
       -0.000000000012965
       -0.000000000055552
        0.000000000626866
       -0.000000000379667
       -0.000000001089575
       -0.000000000179247
        0.000000000012819
        0.000000000000000
        0.000000000000000
       -0.000000000023672
        0.000000000145361
       -0.000000000405987
       -0.000000001057624
       -0.000000000412017
        0.000000000160197
       -0.000000000022620
        0.000000000000000
        0.000000000000000
        0.000000000011931
       -0.000000000195009
       -0.000000001143037
       -0.000000000411629
        0.000000000622320
       -0.000000000053984
       -0.000000000010861
        0.000000000000000
        0.000000000000000
        0.000000000010362
       -0.000000000035005
       -0.000000000302309
        0.000000000149919
        0.000000000014062
       -0.000000000090200
        0.000000000000000
        0.000000000000000
        0.000000000000000
        0.000000000000000
        0.000000000043672
       -0.000000000010838
        0.000000000013000
       -0.000000000071378
        0.000000000000000
        0.000000000000000
        0.000000000000000
        0.000000000000000
        0.000000000000000
        0.000000000000000
        0.000000000000000
        0.000000000000000
        0.000000000000000
        0.000000000000000
        0.000000000000000
        0.000000000000000
        0.000000000000000
        0.000000000000000
        0.000000000000000
        0.000000000000000
       -0.000000000036580
        0.000000000024719
        0.000000000000000
        0.000000000000000
        0.000000000000000
        0.000000000000000
        0.000000000000000
       -0.000000000044128
       -0.000000000136334
       -0.000000000376288
        0.000000000212028
        0.000000000197938
       -0.000000000014696
        0.000000000000000
        0.000000000000000
        0.000000000011570
       -0.000000000244832
        0.000000003169128
        0.000000005911793
       -0.000000003855355
       -0.000000003648175
        0.000000000242294
        0.000000000000000
        0.000000000000000
       -0.000000000220157
        0.000000002811724
        0.000000010169525
       -0.000000017045892
       -0.000000032589332
       -0.000000002000520
        0.000000000156741
        0.000000000001773
        0.000000000001878
       -0.000000000461022
        0.000000006194467
       -0.000000017190333
       -0.000000041306696
       -0.000000018075458
        0.000000006202865
       -0.000000000453032
        0.000000000001773
        0.000000000001878
        0.000000000149505
       -0.000000002056652
       -0.000000031770064
       -0.000000015906911
        0.000000010363232
        0.000000002810548
       -0.000000000221164
        0.000000000000000
        0.000000000000000
        0.000000000244304
       -0.000000003684827
       -0.000000004160621
        0.000000005982153
        0.000000003191400
       -0.000000000248304
        0.000000000014333
        0.000000000000000
        0.000000000000000
       -0.000000000016661
        0.000000000201623
        0.000000000206973
       -0.000000000380785
       -0.000000000141281
       -0.000000000040829
        0.000000000000000
        0.000000000000000
        0.000000000000000
        0.000000000000000
        0.000000000000000
        0.000000000026718
       -0.000000000036274
        0.000000000000000
        0.000000000000000
        0.000000000000000
        0.000000000000000
        0.000000000000000
        0.000000000000000
        0.000000000000000
       -0.000000000014108
       -0.000000000002771
        0.000000000013801
        0.000000000000000
        0.000000000000000
        0.000000000000000
        0.000000000000000
        0.000000000007249
       -0.000000000058246
       -0.000000000726333
        0.000000000029064
        0.000000000731149
        0.000000000064506
       -0.000000000005514
        0.000000000000000
        0.000000000000000
       -0.000000000095027
        0.000000001314734
        0.000000014035284
       -0.000000000564552
       -0.000000014117586
       -0.000000001324967
        0.000000000100998
        0.000000000000000
        0.000000000003699
       -0.000000000711104
        0.000000012003600
        0.000000058989096
       -0.000000002284578
       -0.000000060207511
       -0.000000011991284
        0.000000000718278
       -0.000000000002769
        0.000000000000000
        0.000000000000000
       -0.000000000000000
        0.000000000000000
        0.000000000000000
       -0.000000000000000
        0.000000000000000
        0.000000000000000
        0.000000000000000
       -0.000000000003699
        0.000000000711104
       -0.000000012003600
       -0.000000058989096
        0.000000002284578
        0.000000060207511
        0.000000011991284
       -0.000000000718278
        0.000000000002769
        0.000000000000000
        0.000000000095027
       -0.000000001314734
       -0.000000014035284
        0.000000000564552
        0.000000014117586
        0.000000001324967
       -0.000000000100998
        0.000000000000000
        0.000000000000000
       -0.000000000007249
        0.000000000058246
        0.000000000726333
       -0.000000000029064
       -0.000000000731149
       -0.000000000064506
        0.000000000005514
        0.000000000000000
        0.000000000000000
        0.000000000000000
        0.000000000000000
        0.000000000014108
        0.000000000002771
       -0.000000000013801
        0.000000000000000
        0.000000000000000
        0.000000000000000
        0.000000000000000
        0.000000000000000
        0.000000000000000
       -0.000000000026718
        0.000000000036274
        0.000000000000000
        0.000000000000000
        0.000000000000000
        0.000000000000000
        0.000000000000000
        0.000000000016661
       -0.000000000201623
       -0.000000000206973
        0.000000000380785
        0.000000000141281
        0.000000000040829
        0.000000000000000
        0.000000000000000
        0.000000000000000
       -0.000000000244304
        0.000000003684827
        0.000000004160621
       -0.000000005982153
       -0.000000003191400
        0.000000000248304
       -0.000000000014333
        0.000000000000000
       -0.000000000001878
       -0.000000000149505
        0.000000002056652
        0.000000031770064
        0.000000015906911
       -0.000000010363232
       -0.000000002810548
        0.000000000221164
        0.000000000000000
       -0.000000000001878
        0.000000000461022
       -0.000000006194467
        0.000000017190333
        0.000000041306696
        0.000000018075458
       -0.000000006202865
        0.000000000453032
       -0.000000000001773
        0.000000000000000
        0.000000000220157
       -0.000000002811724
       -0.000000010169525
        0.000000017045892
        0.000000032589332
        0.000000002000520
       -0.000000000156741
       -0.000000000001773
        0.000000000000000
       -0.000000000011570
        0.000000000244832
       -0.000000003169128
       -0.000000005911793
        0.000000003855355
        0.000000003648175
       -0.000000000242294
        0.000000000000000
        0.000000000000000
        0.000000000000000
        0.000000000044128
        0.000000000136334
        0.000000000376288
       -0.000000000212028
       -0.000000000197938
        0.000000000014696
        0.000000000000000
        0.000000000000000
        0.000000000000000
        0.000000000000000
        0.000000000000000
        0.000000000036580
       -0.000000000024719
        0.000000000000000
        0.000000000000000
        0.000000000000000
        0.000000000000000
        0.000000000000000
        0.000000000000000
        0.000000000000000
        0.000000000000000
        0.000000000000000
        0.000000000000000
        0.000000000000000
        0.000000000000000
        0.000000000000000
        0.000000000000000
       -0.000000000043672
        0.000000000010838
       -0.000000000013000
        0.000000000071378
        0.000000000000000
        0.000000000000000
        0.000000000000000
        0.000000000000000
       -0.000000000010362
        0.000000000035005
        0.000000000302309
       -0.000000000149919
       -0.000000000014062
        0.000000000090200
        0.000000000000000
        0.000000000000000
        0.000000000000000
       -0.000000000011931
        0.000000000195009
        0.000000001143037
        0.000000000411629
       -0.000000000622320
        0.000000000053984
        0.000000000010861
        0.000000000000000
        0.000000000000000
        0.000000000023672
       -0.000000000145361
        0.000000000405987
        0.000000001057624
        0.000000000412017
       -0.000000000160197
        0.000000000022620
        0.000000000000000
        0.000000000000000
        0.000000000012965
        0.000000000055552
       -0.000000000626866
        0.000000000379667
        0.000000001089575
        0.000000000179247
       -0.000000000012819
        0.000000000000000
        0.000000000000000
        0.000000000000000
        0.000000000100085
       -0.000000000016765
       -0.000000000140678
        0.000000000259810
        0.000000000042905
       -0.000000000012289
        0.000000000000000
        0.000000000000000
        0.000000000000000
        0.000000000000000
        0.000000000074682
       -0.000000000019299
        0.000000000014670
       -0.000000000047509
        0.000000000000000
        0.000000000000000
        0.000000000000000
        0.000000000000000
        0.000000000000000
        0.000000000000000
        0.000000000000000
        0.000000000000000
        0.000000000000000
        0.000000000000000
        0.000000000000000
        0.000000000000000
        0.000000000000000
        0.000000000000000
        0.000000000000000
        0.000000000000000
        0.000000000000000
        0.000000000000000
        0.000000000000000
        0.000000000000000
        0.000000000000000
        0.000000000000000
        0.000000000000000
       -0.000000000025235
        0.000000000029449
        0.000000000000000
        0.000000000000000
        0.000000000000000
        0.000000000000000
        0.000000000000000
        0.000000000000000
       -0.000000000026440
       -0.000000000025920
        0.000000000032261
        0.000000000049485
        0.000000000000000
        0.000000000000000
        0.000000000000000
        0.000000000000000
        0.000000000000056
       -0.000000000041871
        0.000000000049432
       -0.000000000035249
        0.000000000068313
        0.000000000030831
        0.000000000000000
        0.000000000000000
        0.000000000000000
        0.000000000000056
        0.000000000052599
       -0.000000000027280
        0.000000000031474
       -0.000000000036108
        0.000000000051385
        0.000000000000213
        0.000000000000000
        0.000000000000000
        0.000000000000000
        0.000000000033017
        0.000000000067993
       -0.000000000039991
        0.000000000042725
       -0.000000000042651
        0.000000000000213
        0.000000000000000
        0.000000000000000
        0.000000000000000
        0.000000000000000
        0.000000000052340
        0.000000000026618
       -0.000000000023209
       -0.000000000028278
        0.000000000000000
        0.000000000000000
        0.000000000000000
        0.000000000000000
        0.000000000000000
        0.000000000000000
        0.000000000027736
       -0.000000000027199
        0.000000000000000
        0.000000000000000
        0.000000000000000
        0.000000000000000
        0.000000000000000
        0.000000000000000
        0.000000000000000
        0.000000000000000
        0.000000000000000
        0.000000000000000
        0.000000000000000
        0.000000000000000
        0.000000000000000
        0.000000000000000
        0.000000000000000
        0.000000000000000
        0.000000000000000
        0.000000000000000
        0.000000000000000
        0.000000000000000
        0.000000000000000
        0.000000000000000
        0.000000000000000
        0.000000000000000
        0.000000000000000
        0.000000000000000
        0.000000000000000
        0.000000000000000
        0.000000000000000
        0.000000000000000
        0.000000000000000
        0.000000000000000
        0.000000000000000
        0.000000000000000
        0.000000000000000
        0.000000000000000
        0.000000000000000
        0.000000000000000
        0.000000000000000
        0.000000000000000
        0.000000000000000
        0.000000000000000
       -0.000000000001323
        0.000000000015216
        0.000000000000000
        0.000000000000000
        0.000000000000000
        0.000000000000000
        0.000000000000000
        0.000000000000000
        0.000000000000000
       -0.000000000001323
        0.000000000043649
       -0.000000000001216
        0.000000000000000
        0.000000000000000
        0.000000000000000
        0.000000000000000
        0.000000000000000
        0.000000000000000
        0.000000000000000
        0.000000000014277
       -0.000000000001216
        0.000000000000000
        0.000000000000000
        0.000000000000000
        0.000000000000000
        0.000000000000000
        0.000000000000000
        0.000000000000000
        0.000000000000000
        0.000000000000000
        0.000000000000000
        0.000000000000000
        0.000000000000000
        0.000000000000000
        0.000000000000000
        0.000000000000000
        0.000000000000000
        0.000000000000000
        0.000000000000000
        0.000000000000000
        0.000000000000000
        0.000000000000000
        0.000000000000000
        0.000000000000000
        0.000000000000000
        0.000000000000000
        0.000000000000000
        0.000000000000000
        0.000000000000000
        0.000000000000000
        0.000000000000000
END_DATAGRID_3D
END_BLOCK_DATAGRID_3D
