ATOMS
         C    7.558905    7.558905    7.558905
         H    8.755769    8.755769    8.755769
         H    6.362040    6.362040    8.755769
         H    8.755769    6.362040    6.362040
         H    6.362040    8.755769    6.362040
BEGIN_BLOCK_DATAGRID_3D
units: coords = b, function = sqrt(b^-3)
BEGIN_DATAGRID_3D_function
      9      9      9
0.0 0.0 0.0
   15.117809    0.000000    0.000000
    0.000000   15.117809    0.000000
    0.000000    0.000000   15.117809
        0.000000000000000
        0.000000000000000
        0.000000000000000
        0.000000000000000
        0.000000000000000
        0.000000000000000
        0.000000000000000
        0.000000000000000
        0.000000000000000
        0.000000000000000
        0.000000000000000
        0.000000000000000
        0.000000000000000
        0.000000000000000
        0.000000000000000
        0.000000000000000
        0.000000000000000
        0.000000000000000
        0.000000000000000
        0.000000000000000
        0.000000000000000
        0.000000000000000
        0.000000000000000
        0.000000000000000
        0.000000000000000
        0.000000000000000
        0.000000000000000
        0.000000000000000
        0.000000000000000
        0.000000000000000
        0.000000000000000
       -0.000023068472579
        0.000008770018499
        0.000000000000000
        0.000000000000000
        0.000000000000000
        0.000000000000000
        0.000000000000000
        0.000000000000000
       -0.000050792667215
       -0.000021364237799
        0.000022523779809
        0.000000000000000
        0.000000000000000
        0.000000000000000
        0.000000000000000
        0.000000000000000
        0.000000000000000
       -0.000032985088872
       -0.000005596724243
        0.000000000000000
        0.000000000000000
        0.000000000000000
        0.000000000000000
        0.000000000000000
        0.000000000000000
        0.000000000000000
        0.000000000000000
        0.000000000000000
        0.000000000000000
        0.000000000000000
        0.000000000000000
        0.000000000000000
        0.000000000000000
        0.000000000000000
        0.000000000000000
        0.000000000000000
        0.000000000000000
        0.000000000000000
        0.000000000000000
        0.000000000000000
        0.000000000000000
        0.000000000000000
        0.000000000000000
        0.000000000000000
        0.000000000000000
        0.000000000000000
        0.000000000000000
        0.000000000000000
        0.000000000000000
        0.000000000000000
        0.000000000000000
        0.000000000000000
        0.000000000000000
        0.000000000000000
        0.000000000000000
        0.000000000000000
        0.000000000000000
        0.000000000000000
        0.000000000000000
        0.000000000000000
        0.000000000000000
        0.000000000000000
        0.000000000000000
       -0.000049827548852
       -0.000017097363229
        0.000000000000000
        0.000000000000000
        0.000000000000000
        0.000000000000000
        0.000000000000000
        0.000000000000000
       -0.000179567043083
       -0.000150724273935
       -0.000002213412767
        0.000050416920075
        0.000000000000000
        0.000000000000000
        0.000000000000000
        0.000000000000000
       -0.000235800258187
       -0.000384437221992
       -0.000215477245971
        0.000102971229385
        0.000165932420869
        0.000075360642302
        0.000000000000000
        0.000000000000000
       -0.000114621845339
       -0.000328954583080
       -0.000434798416706
       -0.000123986637600
        0.000256854671155
        0.000258972327686
        0.000099249430118
        0.000000000000000
        0.000000000000000
       -0.000090322569800
       -0.000228810269799
       -0.000248827726539
        0.000033791127413
        0.000267836254204
        0.000195291872303
        0.000000000000000
        0.000000000000000
        0.000000000000000
        0.000000000000000
       -0.000080157198778
       -0.000064601106266
        0.000074379071463
        0.000136100342905
        0.000000000000000
        0.000000000000000
        0.000000000000000
        0.000000000000000
        0.000000000000000
        0.000000000000000
       -0.000000644354825
        0.000030979698164
        0.000000000000000
        0.000000000000000
        0.000000000000000
        0.000000000000000
        0.000000000000000
        0.000000000000000
        0.000000000000000
        0.000000000000000
        0.000000000000000
        0.000000000000000
        0.000000000000000
        0.000000000000000
        0.000000000000000
        0.000000000000000
        0.000000000000000
        0.000000000000000
        0.000000000000000
        0.000000000000000
        0.000000000000000
        0.000000000000000
        0.000000000000000
        0.000000000000000
        0.000000000000000
        0.000000000000000
        0.000000000000000
       -0.000238529627186
       -0.000235562306942
       -0.000065584384028
        0.000023567151697
        0.000000000000000
        0.000000000000000
        0.000000000000000
        0.000000000000000
       -0.000480045059584
       -0.000912491285142
       -0.000729333500345
        0.000011606831831
        0.000222280994958
        0.000107563356365
        0.000000000000000
        0.000000000000000
       -0.000340388610769
       -0.001157225455467
       -0.001991660344530
       -0.001239708634979
        0.000724707462724
        0.000777506080533
        0.000301778703502
        0.000000000000000
        0.000000000000000
       -0.000478679378519
       -0.001514999736108
       -0.002512163721607
       -0.000567801374613
        0.001820956179752
        0.001307179007369
        0.000442012278984
        0.000000000000000
        0.000000000000000
       -0.000340132141673
       -0.000971861664566
       -0.001285293373893
        0.000525078985474
        0.001605989765322
        0.001044362615594
        0.000323272718153
        0.000000000000000
        0.000000000000000
       -0.000127159388215
       -0.000312255848326
       -0.000223645256056
        0.000490951397222
        0.000784988632845
        0.000446545730458
        0.000000000000000
        0.000000000000000
        0.000000000000000
        0.000000000000000
       -0.000046220475939
        0.000016365455246
        0.000183953510150
        0.000213080061683
        0.000000000000000
        0.000000000000000
        0.000000000000000
        0.000000000000000
        0.000000000000000
        0.000000000000000
        0.000000000000000
        0.000000000000000
        0.000000000000000
        0.000000000000000
        0.000000000000000
        0.000000000000000
        0.000000000000000
        0.000000000000000
        0.000000000000000
        0.000000000000000
       -0.000096882270341
       -0.000049677012820
        0.000000000000000
        0.000000000000000
        0.000000000000000
        0.000000000000000
        0.000000000000000
       -0.000364598554770
       -0.000689658081200
       -0.000626793368089
       -0.000189101100960
        0.000048098832575
        0.000045543521546
        0.000000000000000
        0.000000000000000
       -0.000410161342473
       -0.001463424358508
       -0.002797081296846
       -0.002410511839224
       -0.000004310968183
        0.000531021445213
        0.000247367457090
        0.000000000000000
        0.000000000000000
       -0.000928353798989
       -0.003435066097056
       -0.007366786382409
       -0.005438886585252
        0.003054948457030
        0.002272906451222
        0.000726110440468
        0.000134045043509
       -0.000181076520565
       -0.001164658706510
       -0.004601071081711
       -0.010409664871920
       -0.001506716613061
        0.008941883751312
        0.004324308582369
        0.001140348062004
        0.000181765485941
       -0.000135708171940
       -0.000764941717215
       -0.002580456292422
       -0.004338845180653
        0.003866762959881
        0.006778818433734
        0.003339367246271
        0.000927802302645
        0.000000000000000
        0.000000000000000
       -0.000272099744146
       -0.000660326693527
       -0.000353862441928
        0.002037230473760
        0.002657550010665
        0.001448486589798
        0.000416358307997
        0.000000000000000
        0.000000000000000
       -0.000053041277108
       -0.000079877617348
        0.000124341546406
        0.000565029454685
        0.000666333611379
        0.000365275931929
        0.000000000000000
        0.000000000000000
        0.000000000000000
        0.000000000000000
        0.000000000000000
        0.000041693436105
        0.000089733445645
        0.000000000000000
        0.000000000000000
        0.000000000000000
        0.000000000000000
        0.000000000000000
        0.000000000000000
        0.000000000000000
       -0.000158357945501
       -0.000167901366464
       -0.000066400384098
        0.000000000000000
        0.000000000000000
        0.000000000000000
        0.000000000000000
       -0.000195071782536
       -0.000633436434661
       -0.001114272455787
       -0.000974327716383
       -0.000309084532851
        0.000040828635848
        0.000051009277127
        0.000000000000000
        0.000000000000000
       -0.000698034868876
       -0.002488138857562
       -0.005245252029198
       -0.004461606066909
       -0.000343436903056
        0.000649180876135
        0.000308917638735
        0.000000000000000
       -0.000214672787524
       -0.001432093973020
       -0.006161150488330
       -0.016541301332168
       -0.011836217970680
        0.004303933129354
        0.003331741172224
        0.000986311032932
        0.000166815828186
       -0.000281199771749
       -0.001640604293756
       -0.007554408708397
       -0.020150422088649
       -0.000004625971544
        0.020366571802823
        0.007718880014600
        0.001694821516888
        0.000293585214927
       -0.000162581117712
       -0.000972066251085
       -0.003346578721914
       -0.004483794257697
        0.011834280227449
        0.016947030885025
        0.006383318398585
        0.001497160230212
        0.000227068544360
        0.000000000000000
       -0.000312266670179
       -0.000683355650363
        0.000253159940112
        0.004461229106311
        0.005389269204211
        0.002591540165236
        0.000734662519594
        0.000000000000000
        0.000000000000000
       -0.000054304893436
       -0.000053239808799
        0.000288275953284
        0.000974270764087
        0.001143972814194
        0.000660824966355
        0.000206580414632
        0.000000000000000
        0.000000000000000
        0.000000000000000
        0.000000000000000
        0.000062825380734
        0.000167895927477
        0.000162956760679
        0.000000000000000
        0.000000000000000
        0.000000000000000
        0.000000000000000
        0.000000000000000
        0.000000000000000
       -0.000141895239633
       -0.000128377847211
        0.000000000000000
        0.000000000000000
        0.000000000000000
        0.000000000000000
        0.000000000000000
       -0.000180569575703
       -0.000569078896276
       -0.000967814705181
       -0.000800958132350
       -0.000251988754385
        0.000013777804301
        0.000000000000000
        0.000000000000000
        0.000000000000000
       -0.000616532681744
       -0.002177664776484
       -0.004461792212939
       -0.003204833167071
       -0.000373093550234
        0.000409749287873
        0.000201032047518
        0.000000000000000
       -0.000185969656791
       -0.001190294163876
       -0.005022455983632
       -0.013365656656294
       -0.006911182307923
        0.002200244493409
        0.002168196511420
        0.000714253369399
        0.000000000000000
       -0.000196177384671
       -0.001239501517595
       -0.004906658128533
       -0.010615430717945
        0.001504778869830
        0.012309080263067
        0.005390750988440
        0.001343123201140
        0.000212118886604
        0.000000000000000
       -0.000661337045941
       -0.001954860068049
       -0.001516904141002
        0.008481338055418
        0.014840090225432
        0.005495739903250
        0.001293656697096
        0.000201812727396
        0.000000000000000
       -0.000187544731186
       -0.000355137147380
        0.000536889447848
        0.003577601546350
        0.004871894004166
        0.002368941104085
        0.000670536662430
        0.000000000000000
        0.000000000000000
        0.000000000000000
       -0.000006377867245
        0.000279714887386
        0.000862635318597
        0.001041671080364
        0.000615015446126
        0.000195761832659
        0.000000000000000
        0.000000000000000
        0.000000000000000
        0.000000000000000
        0.000000000000000
        0.000135516201290
        0.000150956144906
        0.000000000000000
        0.000000000000000
        0.000000000000000
        0.000000000000000
        0.000000000000000
        0.000000000000000
        0.000000000000000
        0.000000000000000
        0.000000000000000
        0.000000000000000
        0.000000000000000
        0.000000000000000
        0.000000000000000
        0.000000000000000
       -0.000265235473470
       -0.000459984005010
       -0.000364407010618
       -0.000115748818990
        0.000000000000000
        0.000000000000000
        0.000000000000000
        0.000000000000000
       -0.000285092418034
       -0.000961925899305
       -0.001678585641345
       -0.001143800936744
       -0.000157458188560
        0.000144943924005
        0.000000000000000
        0.000000000000000
        0.000000000000000
       -0.000548500284217
       -0.001866129805444
       -0.003530361280975
       -0.001692681678785
        0.000678466695109
        0.000813873262077
        0.000294117637362
        0.000000000000000
        0.000000000000000
       -0.000531622160536
       -0.001656494771817
       -0.002479928367479
        0.000567424414015
        0.003224876121404
        0.001933542034002
        0.000601567879344
        0.000000000000000
        0.000000000000000
       -0.000257317462890
       -0.000661336050421
       -0.000268531504467
        0.002406798342105
        0.004142875573258
        0.002122456468766
        0.000616125416019
        0.000000000000000
        0.000000000000000
        0.000000000000000
       -0.000098840156681
        0.000291611201243
        0.001382005477238
        0.001911152508759
        0.001079717062023
        0.000318265887019
        0.000000000000000
        0.000000000000000
        0.000000000000000
        0.000000000000000
        0.000142215173650
        0.000415980080029
        0.000513994769713
        0.000294674951550
        0.000000000000000
        0.000000000000000
        0.000000000000000
        0.000000000000000
        0.000000000000000
        0.000000000000000
        0.000000000000000
        0.000000000000000
        0.000000000000000
        0.000000000000000
        0.000000000000000
        0.000000000000000
        0.000000000000000
        0.000000000000000
        0.000000000000000
        0.000000000000000
        0.000000000000000
        0.000000000000000
        0.000000000000000
        0.000000000000000
        0.000000000000000
        0.000000000000000
        0.000000000000000
       -0.000121069313763
       -0.000098264906312
        0.000000000000000
        0.000000000000000
        0.000000000000000
        0.000000000000000
        0.000000000000000
        0.000000000000000
       -0.000231298750631
       -0.000379017443497
       -0.000254832571932
       -0.000038769100212
        0.000000000000000
        0.000000000000000
        0.000000000000000
        0.000000000000000
       -0.000143288283011
       -0.000420146243825
       -0.000594645432236
       -0.000269719805078
        0.000146508602791
        0.000183761863928
        0.000000000000000
        0.000000000000000
        0.000000000000000
       -0.000134754830634
       -0.000357721660379
       -0.000391198085797
        0.000123929685305
        0.000578033610188
        0.000442681274517
        0.000158340261641
        0.000000000000000
        0.000000000000000
        0.000000000000000
       -0.000135176163829
       -0.000025505971822
        0.000451319196478
        0.000749598750019
        0.000497181857832
        0.000165944711903
        0.000000000000000
        0.000000000000000
        0.000000000000000
        0.000000000000000
        0.000083252589547
        0.000331142047021
        0.000450623798452
        0.000267825183172
        0.000000000000000
        0.000000000000000
        0.000000000000000
        0.000000000000000
        0.000000000000000
        0.000000000000000
        0.000117104786193
        0.000140119603254
        0.000000000000000
        0.000000000000000
        0.000000000000000
        0.000000000000000
        0.000000000000000
        0.000000000000000
        0.000000000000000
        0.000000000000000
        0.000000000000000
        0.000000000000000
        0.000000000000000
        0.000000000000000
        0.000000000000000
        0.000000000000000
        0.000000000000000
        0.000000000000000
        0.000000000000000
        0.000000000000000
        0.000000000000000
        0.000000000000000
        0.000000000000000
        0.000000000000000
        0.000000000000000
        0.000000000000000
        0.000000000000000
        0.000000000000000
        0.000000000000000
        0.000000000000000
        0.000000000000000
        0.000000000000000
        0.000000000000000
        0.000000000000000
        0.000000000000000
        0.000000000000000
        0.000000000000000
        0.000000000000000
        0.000000000000000
        0.000000000000000
        0.000000000000000
        0.000000000000000
        0.000000000000000
        0.000000000000000
       -0.000067216714656
       -0.000033047677323
        0.000000000000000
        0.000000000000000
        0.000000000000000
        0.000000000000000
        0.000000000000000
        0.000000000000000
        0.000000000000000
       -0.000044739897552
        0.000021358798812
        0.000074032596772
        0.000000000000000
        0.000000000000000
        0.000000000000000
        0.000000000000000
        0.000000000000000
        0.000000000000000
        0.000000000000000
        0.000061702403528
        0.000092509113586
        0.000000000000000
        0.000000000000000
        0.000000000000000
        0.000000000000000
        0.000000000000000
        0.000000000000000
        0.000000000000000
        0.000000000000000
        0.000000000000000
        0.000000000000000
        0.000000000000000
        0.000000000000000
        0.000000000000000
        0.000000000000000
        0.000000000000000
        0.000000000000000
        0.000000000000000
        0.000000000000000
        0.000000000000000
        0.000000000000000
        0.000000000000000
        0.000000000000000
        0.000000000000000
        0.000000000000000
        0.000000000000000
        0.000000000000000
        0.000000000000000
        0.000000000000000
        0.000000000000000
        0.000000000000000
END_DATAGRID_3D
END_BLOCK_DATAGRID_3D
