ATOMS
         C    7.558905    7.558905    7.558905
         H    8.755769    8.755769    8.755769
         H    6.362040    6.362040    8.755769
         H    8.755769    6.362040    6.362040
         H    6.362040    8.755769    6.362040
BEGIN_BLOCK_DATAGRID_3D
units: coords = b, function = sqrt(b^-3)
BEGIN_DATAGRID_3D_function
      9      9      9
0.0 0.0 0.0
   15.117809    0.000000    0.000000
    0.000000   15.117809    0.000000
    0.000000    0.000000   15.117809
        0.000000000000000
        0.000000000000000
        0.000000000000000
        0.000000000000000
        0.000000000000000
        0.000000000000000
        0.000000000000000
        0.000000000000000
        0.000000000000000
        0.000000000000000
        0.000000000000000
        0.000000000000000
        0.000000000000000
        0.000000000000000
        0.000000000000000
        0.000000000000000
        0.000000000000000
        0.000000000000000
        0.000000000000000
        0.000000000000000
        0.000000000000000
        0.000000000000000
        0.000000000000000
        0.000000000000000
        0.000000000000000
        0.000000000000000
        0.000000000000000
        0.000000000000000
        0.000000000000000
        0.000000000000000
        0.000000000000000
       -0.000196312695056
       -0.000190925295716
        0.000000000000000
        0.000000000000000
        0.000000000000000
        0.000000000000000
        0.000000000000000
        0.000000000000000
       -0.000116830993807
       -0.000228903556676
       -0.000190656922525
        0.000000000000000
        0.000000000000000
        0.000000000000000
        0.000000000000000
        0.000000000000000
        0.000000000000000
       -0.000071567666549
       -0.000110787512356
        0.000000000000000
        0.000000000000000
        0.000000000000000
        0.000000000000000
        0.000000000000000
        0.000000000000000
        0.000000000000000
        0.000000000000000
        0.000000000000000
        0.000000000000000
        0.000000000000000
        0.000000000000000
        0.000000000000000
        0.000000000000000
        0.000000000000000
        0.000000000000000
        0.000000000000000
        0.000000000000000
        0.000000000000000
        0.000000000000000
        0.000000000000000
        0.000000000000000
        0.000000000000000
        0.000000000000000
        0.000000000000000
        0.000000000000000
        0.000000000000000
        0.000000000000000
        0.000000000000000
        0.000000000000000
        0.000000000000000
        0.000000000000000
        0.000000000000000
        0.000000000000000
        0.000000000000000
        0.000000000000000
        0.000000000000000
        0.000000000000000
        0.000000000000000
        0.000000000000000
        0.000000000000000
        0.000000000000000
        0.000000000000000
        0.000000000000000
       -0.000205663963025
       -0.000207688748334
        0.000000000000000
        0.000000000000000
        0.000000000000000
        0.000000000000000
        0.000000000000000
        0.000000000000000
       -0.000348912387101
       -0.000694825316460
       -0.000698252688924
       -0.000354984903448
        0.000000000000000
        0.000000000000000
        0.000000000000000
        0.000000000000000
       -0.000185921118339
       -0.000687682196449
       -0.001319899274957
       -0.001294896061658
       -0.000677324663321
       -0.000196328765269
        0.000000000000000
        0.000000000000000
       -0.000017594191480
       -0.000180859743437
       -0.000691909560779
       -0.001328298097408
       -0.001257537796064
       -0.000641967110972
       -0.000186994225880
        0.000000000000000
        0.000000000000000
        0.000003999523051
       -0.000048822005059
       -0.000293472043432
       -0.000626545332354
       -0.000598806435075
       -0.000299143562951
        0.000000000000000
        0.000000000000000
        0.000000000000000
        0.000000000000000
        0.000017246815234
       -0.000024801090733
       -0.000123107036999
       -0.000133809440092
        0.000000000000000
        0.000000000000000
        0.000000000000000
        0.000000000000000
        0.000000000000000
        0.000000000000000
        0.000017353396734
        0.000003766338008
        0.000000000000000
        0.000000000000000
        0.000000000000000
        0.000000000000000
        0.000000000000000
        0.000000000000000
        0.000000000000000
        0.000000000000000
        0.000000000000000
        0.000000000000000
        0.000000000000000
        0.000000000000000
        0.000000000000000
        0.000000000000000
        0.000000000000000
        0.000000000000000
        0.000000000000000
        0.000000000000000
        0.000000000000000
        0.000000000000000
        0.000000000000000
        0.000000000000000
        0.000000000000000
        0.000000000000000
        0.000000000000000
       -0.000337948336967
       -0.000679049745201
       -0.000686468902367
       -0.000349992208317
        0.000000000000000
        0.000000000000000
        0.000000000000000
        0.000000000000000
       -0.000297828178217
       -0.001224011261047
       -0.002554710902140
       -0.002611718261678
       -0.001280724864413
       -0.000339555941219
        0.000000000000000
        0.000000000000000
       -0.000040143309014
       -0.000514259803245
       -0.002420907428798
       -0.005862232320281
       -0.005926911140774
       -0.002513382293374
       -0.000639824420070
        0.000000000000000
        0.000000000000000
        0.000027295734144
       -0.000292535771936
       -0.002228647964120
       -0.006082383313511
       -0.005443715832860
       -0.002282280990546
       -0.000590047894321
        0.000000000000000
        0.000000000000000
        0.000105358704340
        0.000199220277088
       -0.000225234648973
       -0.001792957190085
       -0.001915993902901
       -0.000954566482181
       -0.000262067405365
        0.000000000000000
        0.000000000000000
        0.000082016407943
        0.000238476621152
        0.000310925752318
        0.000001145663605
       -0.000234820835055
       -0.000166784563409
        0.000000000000000
        0.000000000000000
        0.000000000000000
        0.000000000000000
        0.000094451840336
        0.000159395404718
        0.000126171519731
        0.000041317107891
        0.000000000000000
        0.000000000000000
        0.000000000000000
        0.000000000000000
        0.000000000000000
        0.000000000000000
        0.000000000000000
        0.000000000000000
        0.000000000000000
        0.000000000000000
        0.000000000000000
        0.000000000000000
        0.000000000000000
        0.000000000000000
        0.000000000000000
        0.000000000000000
       -0.000182587072417
       -0.000180057112252
        0.000000000000000
        0.000000000000000
        0.000000000000000
        0.000000000000000
        0.000000000000000
       -0.000161971167665
       -0.000630926597060
       -0.001243415337687
       -0.001240585421761
       -0.000655413592272
       -0.000190784293096
        0.000000000000000
        0.000000000000000
       -0.000027169119704
       -0.000457322337309
       -0.002271139981622
       -0.005644522305982
       -0.005791350687538
       -0.002467548652600
       -0.000629706687909
        0.000000000000000
        0.000000000000000
        0.000069159557992
       -0.000419419786034
       -0.004570343220905
       -0.016547701530490
       -0.017602985826815
       -0.005488183394757
       -0.001119343637169
       -0.000155865469289
        0.000064329020172
        0.000319998042306
        0.000658174065154
       -0.002378907160525
       -0.016135110692825
       -0.014521695801291
       -0.004713197058866
       -0.001002727442981
       -0.000145313290482
        0.000070781573668
        0.000419084477287
        0.001556339154795
        0.003313606079712
       -0.000287958928727
       -0.002531872343175
       -0.001400775275683
       -0.000405024737273
        0.000000000000000
        0.000000000000000
        0.000260130365229
        0.000907952978641
        0.001893742743897
        0.001647142025339
        0.000476274069587
       -0.000035196579520
       -0.000050300484478
        0.000000000000000
        0.000000000000000
        0.000088813344108
        0.000289995305783
        0.000555476843649
        0.000582005905409
        0.000307763082851
        0.000087565066896
        0.000000000000000
        0.000000000000000
        0.000000000000000
        0.000000000000000
        0.000000000000000
        0.000098323734658
        0.000106085760710
        0.000000000000000
        0.000000000000000
        0.000000000000000
        0.000000000000000
        0.000000000000000
        0.000000000000000
        0.000000000000000
       -0.000096829307623
       -0.000201655082926
       -0.000174121538162
        0.000000000000000
        0.000000000000000
        0.000000000000000
        0.000000000000000
       -0.000002634583483
       -0.000124241561986
       -0.000565561851592
       -0.001170177785002
       -0.001152301807855
       -0.000601403448268
       -0.000178024004104
        0.000000000000000
        0.000000000000000
        0.000068084729912
       -0.000111581251758
       -0.001720432157766
       -0.005358333129701
       -0.005041248494798
       -0.002159926710987
       -0.000565299041630
        0.000000000000000
        0.000070576221865
        0.000369727437891
        0.000948269709487
       -0.001238733767934
       -0.014214347339837
       -0.013659272216724
       -0.004528629862370
       -0.000974084368141
       -0.000142533412367
        0.000131919698701
        0.000769659316482
        0.003544011840675
        0.009453199745122
        0.000002170189430
       -0.009554602406265
       -0.003621170527626
       -0.000795094329091
       -0.000137730101469
        0.000106405506117
        0.000758140093507
        0.003512106502562
        0.011102270491726
        0.014215256396419
        0.003689773477664
       -0.000029011573357
       -0.000190990477859
       -0.000042250193345
        0.000000000000000
        0.000405879647086
        0.001599429543078
        0.004062380304389
        0.005358509973830
        0.002674089116529
        0.000639602065304
        0.000075722612743
        0.000000000000000
        0.000000000000000
        0.000119625062361
        0.000446383086421
        0.000953062911996
        0.001170204503123
        0.000760629333022
        0.000272235571569
        0.000057180539994
        0.000000000000000
        0.000000000000000
        0.000000000000000
        0.000000000000000
        0.000141646652537
        0.000201657634527
        0.000128823890774
        0.000000000000000
        0.000000000000000
        0.000000000000000
        0.000000000000000
        0.000000000000000
        0.000000000000000
       -0.000051315902296
       -0.000087956450791
        0.000000000000000
        0.000000000000000
        0.000000000000000
        0.000000000000000
        0.000000000000000
        0.000020780888933
        0.000014450701462
       -0.000159776931535
       -0.000471324307488
       -0.000502145348359
       -0.000265391152471
        0.000000000000000
        0.000000000000000
        0.000000000000000
        0.000156755186100
        0.000423438499063
        0.000365433026998
       -0.001099382706241
       -0.001547984782865
       -0.000836560590028
       -0.000239336840523
        0.000000000000000
        0.000080127660650
        0.000498178459016
        0.002010427242157
        0.004992135185471
        0.001716192247034
       -0.001680489809880
       -0.001182996919331
       -0.000365315466627
        0.000000000000000
        0.000112652707811
        0.000807869489092
        0.003802202146896
        0.012242443884316
        0.016136019749406
        0.004552197062230
        0.000155555623139
       -0.000162347403019
       -0.000039470315230
        0.000000000000000
        0.000676614650806
        0.002948004469076
        0.008737963165649
        0.015120391405879
        0.009207857706532
        0.001843665904505
        0.000171807049299
       -0.000001696023982
        0.000000000000000
        0.000307571926073
        0.001310467005363
        0.003331467398927
        0.005097003644913
        0.003507813672151
        0.001107084583347
        0.000199088860127
        0.000000000000000
        0.000000000000000
        0.000000000000000
        0.000336007929903
        0.000823243903280
        0.001132774426216
        0.000840617903634
        0.000344325730052
        0.000077580326309
        0.000000000000000
        0.000000000000000
        0.000000000000000
        0.000000000000000
        0.000000000000000
        0.000164462674595
        0.000132543871020
        0.000000000000000
        0.000000000000000
        0.000000000000000
        0.000000000000000
        0.000000000000000
        0.000000000000000
        0.000000000000000
        0.000000000000000
        0.000000000000000
        0.000000000000000
        0.000000000000000
        0.000000000000000
        0.000000000000000
        0.000000000000000
        0.000051661987385
        0.000048720075102
       -0.000041515080420
       -0.000086978269457
        0.000000000000000
        0.000000000000000
        0.000000000000000
        0.000000000000000
        0.000111383941321
        0.000359282300173
        0.000581470871205
        0.000305126685106
       -0.000059573526010
       -0.000110701924279
        0.000000000000000
        0.000000000000000
        0.000000000000000
        0.000311526846989
        0.001132171200615
        0.002484410419869
        0.002340716509183
        0.000844283189623
        0.000082809312634
       -0.000027569919635
        0.000000000000000
        0.000000000000000
        0.000446668642854
        0.001780384063256
        0.004570596110743
        0.006082560157640
        0.003076556454592
        0.000761956344862
        0.000100471465434
        0.000000000000000
        0.000000000000000
        0.000320546115383
        0.001367404471299
        0.003481234846104
        0.005314713659213
        0.003643374125387
        0.001152918224121
        0.000209206592288
        0.000000000000000
        0.000000000000000
        0.000000000000000
        0.000569401525652
        0.001515285727907
        0.002248521853668
        0.001709691096766
        0.000669916433391
        0.000139785987155
        0.000000000000000
        0.000000000000000
        0.000000000000000
        0.000000000000000
        0.000383132490609
        0.000594410066734
        0.000476105420896
        0.000200694781391
        0.000000000000000
        0.000000000000000
        0.000000000000000
        0.000000000000000
        0.000000000000000
        0.000000000000000
        0.000000000000000
        0.000000000000000
        0.000000000000000
        0.000000000000000
        0.000000000000000
        0.000000000000000
        0.000000000000000
        0.000000000000000
        0.000000000000000
        0.000000000000000
        0.000000000000000
        0.000000000000000
        0.000000000000000
        0.000000000000000
        0.000000000000000
        0.000000000000000
        0.000000000000000
        0.000039746331292
        0.000027799279314
        0.000000000000000
        0.000000000000000
        0.000000000000000
        0.000000000000000
        0.000000000000000
        0.000000000000000
        0.000128867012488
        0.000232916570553
        0.000207763476310
        0.000088148278526
        0.000000000000000
        0.000000000000000
        0.000000000000000
        0.000000000000000
        0.000105594709989
        0.000353268012304
        0.000689171955547
        0.000737226930275
        0.000404424169567
        0.000121317477375
        0.000000000000000
        0.000000000000000
        0.000000000000000
        0.000134584670358
        0.000503001267872
        0.001079410621182
        0.001328324815529
        0.000865865321231
        0.000312799234273
        0.000066150761769
        0.000000000000000
        0.000000000000000
        0.000000000000000
        0.000359957880577
        0.000879999502668
        0.001209258363485
        0.000894928543531
        0.000366236801100
        0.000083124798482
        0.000000000000000
        0.000000000000000
        0.000000000000000
        0.000000000000000
        0.000394096540743
        0.000610185637993
        0.000487889207453
        0.000205687476523
        0.000000000000000
        0.000000000000000
        0.000000000000000
        0.000000000000000
        0.000000000000000
        0.000000000000000
        0.000174102085061
        0.000149975128097
        0.000000000000000
        0.000000000000000
        0.000000000000000
        0.000000000000000
        0.000000000000000
        0.000000000000000
        0.000000000000000
        0.000000000000000
        0.000000000000000
        0.000000000000000
        0.000000000000000
        0.000000000000000
        0.000000000000000
        0.000000000000000
        0.000000000000000
        0.000000000000000
        0.000000000000000
        0.000000000000000
        0.000000000000000
        0.000000000000000
        0.000000000000000
        0.000000000000000
        0.000000000000000
        0.000000000000000
        0.000000000000000
        0.000000000000000
        0.000000000000000
        0.000000000000000
        0.000000000000000
        0.000000000000000
        0.000000000000000
        0.000000000000000
        0.000000000000000
        0.000000000000000
        0.000000000000000
        0.000000000000000
        0.000000000000000
        0.000000000000000
        0.000000000000000
        0.000000000000000
        0.000000000000000
        0.000000000000000
        0.000118575498912
        0.000128916822275
        0.000000000000000
        0.000000000000000
        0.000000000000000
        0.000000000000000
        0.000000000000000
        0.000000000000000
        0.000000000000000
        0.000161648338721
        0.000228906108277
        0.000145359275138
        0.000000000000000
        0.000000000000000
        0.000000000000000
        0.000000000000000
        0.000000000000000
        0.000000000000000
        0.000000000000000
        0.000178188297235
        0.000143412054485
        0.000000000000000
        0.000000000000000
        0.000000000000000
        0.000000000000000
        0.000000000000000
        0.000000000000000
        0.000000000000000
        0.000000000000000
        0.000000000000000
        0.000000000000000
        0.000000000000000
        0.000000000000000
        0.000000000000000
        0.000000000000000
        0.000000000000000
        0.000000000000000
        0.000000000000000
        0.000000000000000
        0.000000000000000
        0.000000000000000
        0.000000000000000
        0.000000000000000
        0.000000000000000
        0.000000000000000
        0.000000000000000
        0.000000000000000
        0.000000000000000
        0.000000000000000
        0.000000000000000
        0.000000000000000
END_DATAGRID_3D
END_BLOCK_DATAGRID_3D
