ATOMS
         C    7.558905    7.558905    7.558905
         H    8.755769    8.755769    8.755769
         H    6.362040    6.362040    8.755769
         H    8.755769    6.362040    6.362040
         H    6.362040    8.755769    6.362040
BEGIN_BLOCK_DATAGRID_3D
units: coords = b, function = sqrt(b^-3)
BEGIN_DATAGRID_3D_function
      9      9      9
0.0 0.0 0.0
   15.117809    0.000000    0.000000
    0.000000   15.117809    0.000000
    0.000000    0.000000   15.117809
        0.000000000000000
        0.000000000000000
        0.000000000000000
        0.000000000000000
        0.000000000000000
        0.000000000000000
        0.000000000000000
        0.000000000000000
        0.000000000000000
        0.000000000000000
        0.000000000000000
        0.000000000000000
        0.000000000000000
        0.000000000000000
        0.000000000000000
        0.000000000000000
        0.000000000000000
        0.000000000000000
        0.000000000000000
        0.000000000000000
        0.000000000000000
        0.000000000000000
        0.000000000000000
        0.000000000000000
        0.000000000000000
        0.000000000000000
        0.000000000000000
        0.000000000000000
        0.000000000000000
        0.000000000000000
        0.000000000000000
        0.000120814552217
        0.000084649755514
        0.000000000000000
        0.000000000000000
        0.000000000000000
        0.000000000000000
        0.000000000000000
        0.000000000000000
        0.000191986598508
        0.000241636323595
        0.000131862356601
        0.000000000000000
        0.000000000000000
        0.000000000000000
        0.000000000000000
        0.000000000000000
        0.000000000000000
        0.000191192954351
        0.000203366708681
        0.000000000000000
        0.000000000000000
        0.000000000000000
        0.000000000000000
        0.000000000000000
        0.000000000000000
        0.000000000000000
        0.000000000000000
        0.000000000000000
        0.000000000000000
        0.000000000000000
        0.000000000000000
        0.000000000000000
        0.000000000000000
        0.000000000000000
        0.000000000000000
        0.000000000000000
        0.000000000000000
        0.000000000000000
        0.000000000000000
        0.000000000000000
        0.000000000000000
        0.000000000000000
        0.000000000000000
        0.000000000000000
        0.000000000000000
        0.000000000000000
        0.000000000000000
        0.000000000000000
        0.000000000000000
        0.000000000000000
        0.000000000000000
        0.000000000000000
        0.000000000000000
        0.000000000000000
        0.000000000000000
        0.000000000000000
        0.000000000000000
        0.000000000000000
        0.000000000000000
        0.000000000000000
        0.000000000000000
        0.000000000000000
        0.000000000000000
        0.000003793301903
       -0.000007047379053
        0.000000000000000
        0.000000000000000
        0.000000000000000
        0.000000000000000
        0.000000000000000
        0.000000000000000
        0.000137575086413
        0.000150962313905
        0.000065708567510
        0.000007423248637
        0.000000000000000
        0.000000000000000
        0.000000000000000
        0.000000000000000
        0.000284378581457
        0.000601772225635
        0.000687926776905
        0.000382895035618
        0.000104311690313
        0.000013949508826
        0.000000000000000
        0.000000000000000
        0.000172932528770
        0.000613210655225
        0.001252869841859
        0.001402197086138
        0.000799355168184
        0.000246159987548
        0.000037947479303
        0.000000000000000
        0.000000000000000
        0.000182909875428
        0.000649165196626
        0.001283262372285
        0.001366812749824
        0.000757642629599
        0.000225749296213
        0.000000000000000
        0.000000000000000
        0.000000000000000
        0.000000000000000
        0.000341254892727
        0.000690351126231
        0.000712483801501
        0.000374511260386
        0.000000000000000
        0.000000000000000
        0.000000000000000
        0.000000000000000
        0.000000000000000
        0.000000000000000
        0.000205550499716
        0.000209329215067
        0.000000000000000
        0.000000000000000
        0.000000000000000
        0.000000000000000
        0.000000000000000
        0.000000000000000
        0.000000000000000
        0.000000000000000
        0.000000000000000
        0.000000000000000
        0.000000000000000
        0.000000000000000
        0.000000000000000
        0.000000000000000
        0.000000000000000
        0.000000000000000
        0.000000000000000
        0.000000000000000
        0.000000000000000
        0.000000000000000
        0.000000000000000
        0.000000000000000
        0.000000000000000
        0.000000000000000
        0.000000000000000
       -0.000042492584427
       -0.000108127195735
       -0.000127822014086
       -0.000074574094729
        0.000000000000000
        0.000000000000000
        0.000000000000000
        0.000000000000000
        0.000139054911994
        0.000224264150941
        0.000083265415578
       -0.000162824223902
       -0.000150766616539
       -0.000055896329207
        0.000000000000000
        0.000000000000000
        0.000227373875519
        0.000867037800077
        0.001871033279772
        0.002035088188949
        0.000638486587432
        0.000010496265326
       -0.000045473900881
        0.000000000000000
        0.000000000000000
        0.000530507728742
        0.002129054364800
        0.005323175460307
        0.006420833356910
        0.002743842347966
        0.000549198908051
        0.000045112459655
        0.000000000000000
        0.000000000000000
        0.000586662388410
        0.002375827396931
        0.005795604988297
        0.006046130769306
        0.002714679872712
        0.000676431027092
        0.000085551457501
        0.000000000000000
        0.000000000000000
        0.000314541495314
        0.001218835489938
        0.002560251927648
        0.002612421498480
        0.001327379805189
        0.000355247004561
        0.000000000000000
        0.000000000000000
        0.000000000000000
        0.000000000000000
        0.000334843319215
        0.000675054332147
        0.000691782198343
        0.000359967689746
        0.000000000000000
        0.000000000000000
        0.000000000000000
        0.000000000000000
        0.000000000000000
        0.000000000000000
        0.000000000000000
        0.000000000000000
        0.000000000000000
        0.000000000000000
        0.000000000000000
        0.000000000000000
        0.000000000000000
        0.000000000000000
        0.000000000000000
        0.000000000000000
       -0.000104607702272
       -0.000093843452633
        0.000000000000000
        0.000000000000000
        0.000000000000000
        0.000000000000000
        0.000000000000000
       -0.000108962545409
       -0.000330351256496
       -0.000568204330913
       -0.000509073744961
       -0.000255543972624
       -0.000077109924327
        0.000000000000000
        0.000000000000000
        0.000014292758448
       -0.000068072560558
       -0.000588666835752
       -0.001540464158502
       -0.001587885489887
       -0.000742250834469
       -0.000211642099881
        0.000000000000000
        0.000000000000000
        0.000308197510148
        0.001099263588859
        0.002133949351623
        0.000773381350907
       -0.002072152500759
       -0.001078423210372
       -0.000305917699784
       -0.000053383036089
        0.000120200855430
        0.000854511805220
        0.004193122055891
        0.013665165288825
        0.017033377058622
        0.004055392234420
       -0.000019218757298
       -0.000173157179397
       -0.000043006583601
        0.000134008064027
        0.000997541794058
        0.005082211637848
        0.016935133633259
        0.016999475452565
        0.005392999781358
        0.000807959288286
        0.000033786493342
        0.000000000000000
        0.000000000000000
        0.000573809211041
        0.002316969935122
        0.005619632254568
        0.005760444067184
        0.002516011431817
        0.000600080974644
        0.000067965048081
        0.000000000000000
        0.000000000000000
        0.000175866421354
        0.000621027752298
        0.001212760508056
        0.001266447325503
        0.000682355598731
        0.000193634666307
        0.000000000000000
        0.000000000000000
        0.000000000000000
        0.000000000000000
        0.000000000000000
        0.000177084142049
        0.000185356236808
        0.000000000000000
        0.000000000000000
        0.000000000000000
        0.000000000000000
        0.000000000000000
        0.000000000000000
        0.000000000000000
       -0.000136510352887
       -0.000205877974698
       -0.000139705915379
        0.000000000000000
        0.000000000000000
        0.000000000000000
        0.000000000000000
       -0.000072756038494
       -0.000316655948511
       -0.000822197075161
       -0.001194686001772
       -0.000928984182154
       -0.000420035822820
       -0.000109374625422
        0.000000000000000
        0.000000000000000
       -0.000139388830840
       -0.000842845487792
       -0.003023487991388
       -0.005470577990082
       -0.003866065055754
       -0.001460282065541
       -0.000361349404859
        0.000000000000000
        0.000017600170058
        0.000037782920728
       -0.000571253002463
       -0.005060430148278
       -0.014512208649822
       -0.010108589529191
       -0.003050451265443
       -0.000643575656982
       -0.000088661808738
        0.000100110360164
        0.000584074040005
        0.002689456580697
        0.007173782539710
        0.000001646899194
       -0.007250734329539
       -0.002748010261584
       -0.000603375996408
       -0.000104519720703
        0.000116706568854
        0.000818125832075
        0.003956114197959
        0.012545606536880
        0.014512898508749
        0.002543001377852
       -0.000408221928335
       -0.000240568739946
       -0.000051565568237
        0.000000000000000
        0.000499067824602
        0.001971934090783
        0.004800730319502
        0.005470712192400
        0.002069690592674
        0.000306548018662
       -0.000010177160970
        0.000000000000000
        0.000000000000000
        0.000161537009733
        0.000561120606576
        0.001116261351406
        0.001194706277446
        0.000631754330146
        0.000170239052397
        0.000017669725891
        0.000000000000000
        0.000000000000000
        0.000000000000000
        0.000000000000000
        0.000170521047159
        0.000205879911040
        0.000105330732300
        0.000000000000000
        0.000000000000000
        0.000000000000000
        0.000000000000000
        0.000000000000000
        0.000000000000000
       -0.000141411144956
       -0.000171598384392
        0.000000000000000
        0.000000000000000
        0.000000000000000
        0.000000000000000
        0.000000000000000
       -0.000092698264895
       -0.000389991752854
       -0.000912474340724
       -0.001182453996678
       -0.000829867144020
       -0.000328582165799
        0.000000000000000
        0.000000000000000
        0.000000000000000
       -0.000257445824060
       -0.001306612257956
       -0.003905203686849
       -0.005344764049280
       -0.003329304264914
       -0.001261634367187
       -0.000287763131371
        0.000000000000000
       -0.000019487048983
       -0.000301455282169
       -0.002375487227959
       -0.010632126897549
       -0.015915627071303
       -0.008589649686076
       -0.002768715472323
       -0.000618377240747
        0.000000000000000
        0.000014105883482
        0.000001396947583
       -0.000808260860395
       -0.006179988900223
       -0.017032687199695
       -0.011620980385760
       -0.003439454436480
       -0.000710987217531
       -0.000097220793375
        0.000000000000000
        0.000257750755190
        0.000819612256195
        0.001028746877998
       -0.001856529144962
       -0.004298687548295
       -0.001687304441869
       -0.000413142683269
       -0.000066186201823
        0.000000000000000
        0.000198497493599
        0.000715501419415
        0.001393321187477
        0.001124966769592
       -0.000145030180092
       -0.000290169261271
       -0.000115142347451
        0.000000000000000
        0.000000000000000
        0.000000000000000
        0.000241034427933
        0.000476295758955
        0.000484241877956
        0.000205549004625
        0.000019467645614
       -0.000008797563323
        0.000000000000000
        0.000000000000000
        0.000000000000000
        0.000000000000000
        0.000000000000000
        0.000090853577516
        0.000057786914155
        0.000000000000000
        0.000000000000000
        0.000000000000000
        0.000000000000000
        0.000000000000000
        0.000000000000000
        0.000000000000000
        0.000000000000000
        0.000000000000000
        0.000000000000000
        0.000000000000000
        0.000000000000000
        0.000000000000000
        0.000000000000000
       -0.000223961411038
       -0.000517121014791
       -0.000627538672068
       -0.000394618734093
        0.000000000000000
        0.000000000000000
        0.000000000000000
        0.000000000000000
       -0.000167775100217
       -0.000765212100147
       -0.001883035800947
       -0.002379999536941
       -0.001550787876967
       -0.000565824139717
        0.000000000000000
        0.000000000000000
        0.000000000000000
       -0.000270299001428
       -0.001365469719765
       -0.004081176420579
       -0.005630450751402
       -0.003527972705808
       -0.001337984419634
       -0.000305349540791
        0.000000000000000
        0.000000000000000
       -0.000170828734980
       -0.000999965761810
       -0.003545933132193
       -0.006420699154592
       -0.004540216811047
       -0.001702932954930
       -0.000416639025484
        0.000000000000000
        0.000000000000000
       -0.000014583623472
       -0.000219608941220
       -0.001066378928047
       -0.002450585577859
       -0.002371402257411
       -0.001042916361066
       -0.000281310546451
        0.000000000000000
        0.000000000000000
        0.000000000000000
        0.000067034897871
       -0.000003223684119
       -0.000315624162774
       -0.000521700265208
       -0.000312759700022
       -0.000095703790019
        0.000000000000000
        0.000000000000000
        0.000000000000000
        0.000000000000000
        0.000076781640113
        0.000043896388820
       -0.000031817252095
       -0.000038723762439
        0.000000000000000
        0.000000000000000
        0.000000000000000
        0.000000000000000
        0.000000000000000
        0.000000000000000
        0.000000000000000
        0.000000000000000
        0.000000000000000
        0.000000000000000
        0.000000000000000
        0.000000000000000
        0.000000000000000
        0.000000000000000
        0.000000000000000
        0.000000000000000
        0.000000000000000
        0.000000000000000
        0.000000000000000
        0.000000000000000
        0.000000000000000
        0.000000000000000
        0.000000000000000
       -0.000162219030691
       -0.000185374905363
        0.000000000000000
        0.000000000000000
        0.000000000000000
        0.000000000000000
        0.000000000000000
        0.000000000000000
       -0.000230372984550
       -0.000532417808875
       -0.000648240275226
       -0.000409162304733
        0.000000000000000
        0.000000000000000
        0.000000000000000
        0.000000000000000
       -0.000099741718969
       -0.000418129197182
       -0.000982976204953
       -0.001282819420999
       -0.000905154174888
       -0.000360696795705
        0.000000000000000
        0.000000000000000
        0.000000000000000
       -0.000084151557531
       -0.000368745997161
       -0.000958805565614
       -0.001402176810464
       -0.001096585020192
       -0.000495956757971
       -0.000129652378835
        0.000000000000000
        0.000000000000000
        0.000000000000000
       -0.000152306698933
       -0.000455827723177
       -0.000771889229862
       -0.000686419775955
       -0.000340388017323
       -0.000099856996477
        0.000000000000000
        0.000000000000000
        0.000000000000000
        0.000000000000000
       -0.000103286030727
       -0.000215193120820
       -0.000225347833690
       -0.000120721105805
        0.000000000000000
        0.000000000000000
        0.000000000000000
        0.000000000000000
        0.000000000000000
        0.000000000000000
       -0.000027744773909
       -0.000036749956487
        0.000000000000000
        0.000000000000000
        0.000000000000000
        0.000000000000000
        0.000000000000000
        0.000000000000000
        0.000000000000000
        0.000000000000000
        0.000000000000000
        0.000000000000000
        0.000000000000000
        0.000000000000000
        0.000000000000000
        0.000000000000000
        0.000000000000000
        0.000000000000000
        0.000000000000000
        0.000000000000000
        0.000000000000000
        0.000000000000000
        0.000000000000000
        0.000000000000000
        0.000000000000000
        0.000000000000000
        0.000000000000000
        0.000000000000000
        0.000000000000000
        0.000000000000000
        0.000000000000000
        0.000000000000000
        0.000000000000000
        0.000000000000000
        0.000000000000000
        0.000000000000000
        0.000000000000000
        0.000000000000000
        0.000000000000000
        0.000000000000000
        0.000000000000000
        0.000000000000000
        0.000000000000000
        0.000000000000000
       -0.000155519957258
       -0.000189608856265
        0.000000000000000
        0.000000000000000
        0.000000000000000
        0.000000000000000
        0.000000000000000
        0.000000000000000
        0.000000000000000
       -0.000157975904237
       -0.000241634387253
       -0.000166237539680
        0.000000000000000
        0.000000000000000
        0.000000000000000
        0.000000000000000
        0.000000000000000
        0.000000000000000
        0.000000000000000
       -0.000134568676973
       -0.000120706293992
        0.000000000000000
        0.000000000000000
        0.000000000000000
        0.000000000000000
        0.000000000000000
        0.000000000000000
        0.000000000000000
        0.000000000000000
        0.000000000000000
        0.000000000000000
        0.000000000000000
        0.000000000000000
        0.000000000000000
        0.000000000000000
        0.000000000000000
        0.000000000000000
        0.000000000000000
        0.000000000000000
        0.000000000000000
        0.000000000000000
        0.000000000000000
        0.000000000000000
        0.000000000000000
        0.000000000000000
        0.000000000000000
        0.000000000000000
        0.000000000000000
        0.000000000000000
        0.000000000000000
        0.000000000000000
END_DATAGRID_3D
END_BLOCK_DATAGRID_3D
