ATOMS
         C    7.558905    7.558905    7.558905
         H    8.755769    8.755769    8.755769
         H    6.362040    6.362040    8.755769
         H    8.755769    6.362040    6.362040
         H    6.362040    8.755769    6.362040
BEGIN_BLOCK_DATAGRID_3D
units: coords = b, function = sqrt(b^-3)
BEGIN_DATAGRID_3D_function
      9      9      9
0.0 0.0 0.0
   15.117809    0.000000    0.000000
    0.000000   15.117809    0.000000
    0.000000    0.000000   15.117809
        0.000000000000000
        0.000000000000000
        0.000000000000000
        0.000000000000000
        0.000000000000000
        0.000000000000000
        0.000000000000000
        0.000000000000000
        0.000000000000000
        0.000000000000000
        0.000000000000000
        0.000000000000000
        0.000000000000000
        0.000000000000000
        0.000000000000000
        0.000000000000000
        0.000000000000000
        0.000000000000000
        0.000000000000000
        0.000000000000000
        0.000000000000000
        0.000000000000000
        0.000000000000000
        0.000000000000000
        0.000000000000000
        0.000000000000000
        0.000000000000000
        0.000000000000000
        0.000000000000000
        0.000000000000000
        0.000000000000000
       -0.000145240552804
        0.000054922651948
        0.000000000000000
        0.000000000000000
        0.000000000000000
        0.000000000000000
        0.000000000000000
        0.000000000000000
       -0.000321583519330
       -0.000134532135226
        0.000141061459252
        0.000000000000000
        0.000000000000000
        0.000000000000000
        0.000000000000000
        0.000000000000000
        0.000000000000000
       -0.000208841262173
       -0.000035234838991
        0.000000000000000
        0.000000000000000
        0.000000000000000
        0.000000000000000
        0.000000000000000
        0.000000000000000
        0.000000000000000
        0.000000000000000
        0.000000000000000
        0.000000000000000
        0.000000000000000
        0.000000000000000
        0.000000000000000
        0.000000000000000
        0.000000000000000
        0.000000000000000
        0.000000000000000
        0.000000000000000
        0.000000000000000
        0.000000000000000
        0.000000000000000
        0.000000000000000
        0.000000000000000
        0.000000000000000
        0.000000000000000
        0.000000000000000
        0.000000000000000
        0.000000000000000
        0.000000000000000
        0.000000000000000
        0.000000000000000
        0.000000000000000
        0.000000000000000
        0.000000000000000
        0.000000000000000
        0.000000000000000
        0.000000000000000
        0.000000000000000
        0.000000000000000
        0.000000000000000
        0.000000000000000
        0.000000000000000
        0.000000000000000
        0.000000000000000
       -0.000313728754452
       -0.000107071223383
        0.000000000000000
        0.000000000000000
        0.000000000000000
        0.000000000000000
        0.000000000000000
        0.000000000000000
       -0.001136904683741
       -0.000949085430704
       -0.000013862119187
        0.000314013460959
        0.000000000000000
        0.000000000000000
        0.000000000000000
        0.000000000000000
       -0.001501278752592
       -0.002434135838334
       -0.001356807921777
        0.000644831029026
        0.001033438953009
        0.000466810044042
        0.000000000000000
        0.000000000000000
       -0.000733869361560
       -0.002094439535693
       -0.002752998018189
       -0.000780712296324
        0.001608486127062
        0.001612898802022
        0.000614790657655
        0.000000000000000
        0.000000000000000
       -0.000578296667025
       -0.001456826357100
       -0.001575496393361
        0.000212776107958
        0.001677247075251
        0.001216334746593
        0.000000000000000
        0.000000000000000
        0.000000000000000
        0.000000000000000
       -0.000510339593461
       -0.000409035694223
        0.000468339015656
        0.000852336668488
        0.000000000000000
        0.000000000000000
        0.000000000000000
        0.000000000000000
        0.000000000000000
        0.000000000000000
       -0.000004077500958
        0.000195090734000
        0.000000000000000
        0.000000000000000
        0.000000000000000
        0.000000000000000
        0.000000000000000
        0.000000000000000
        0.000000000000000
        0.000000000000000
        0.000000000000000
        0.000000000000000
        0.000000000000000
        0.000000000000000
        0.000000000000000
        0.000000000000000
        0.000000000000000
        0.000000000000000
        0.000000000000000
        0.000000000000000
        0.000000000000000
        0.000000000000000
        0.000000000000000
        0.000000000000000
        0.000000000000000
        0.000000000000000
        0.000000000000000
       -0.001510222575791
       -0.001483293243764
       -0.000410704123010
        0.000146787319564
        0.000000000000000
        0.000000000000000
        0.000000000000000
        0.000000000000000
       -0.003056317982072
       -0.005777594679680
       -0.004592434229994
        0.000072685162428
        0.001384382272675
        0.000666288774603
        0.000000000000000
        0.000000000000000
       -0.002179331546188
       -0.007367969330696
       -0.012610440025001
       -0.007806126891598
        0.004538319206683
        0.004842399661531
        0.001869324347558
        0.000000000000000
        0.000000000000000
       -0.003064768869146
       -0.009645843218498
       -0.015906044851953
       -0.003575274048691
        0.011403353516327
        0.008141283195748
        0.002737976155894
        0.000000000000000
        0.000000000000000
       -0.002177710878258
       -0.006187755688485
       -0.008138000817150
        0.003306320142150
        0.010057156218825
        0.006504397214896
        0.002002478758170
        0.000000000000000
        0.000000000000000
       -0.000814140824707
       -0.001988118625248
       -0.001416047191752
        0.003091411470414
        0.004915781572161
        0.002781208725975
        0.000000000000000
        0.000000000000000
        0.000000000000000
        0.000000000000000
       -0.000294270099791
        0.000103619409131
        0.001158299742717
        0.001334417224405
        0.000000000000000
        0.000000000000000
        0.000000000000000
        0.000000000000000
        0.000000000000000
        0.000000000000000
        0.000000000000000
        0.000000000000000
        0.000000000000000
        0.000000000000000
        0.000000000000000
        0.000000000000000
        0.000000000000000
        0.000000000000000
        0.000000000000000
        0.000000000000000
       -0.000610001561005
       -0.000311101237011
        0.000000000000000
        0.000000000000000
        0.000000000000000
        0.000000000000000
        0.000000000000000
       -0.002321311402019
       -0.004366693118932
       -0.003946768158490
       -0.001184196755251
        0.000299560963547
        0.000282113784927
        0.000000000000000
        0.000000000000000
       -0.002626052487958
       -0.009317516670148
       -0.017710058571053
       -0.015178388065061
       -0.000027000716302
        0.003307262998503
        0.001532284192129
        0.000000000000000
        0.000000000000000
       -0.005943813117465
       -0.021870631332367
       -0.046642776352432
       -0.034246952339096
        0.019131300338433
        0.014156496146489
        0.004497647109750
        0.000825852591504
       -0.001165820587598
       -0.007457042310068
       -0.029293401462564
       -0.065908654711534
       -0.009486344679261
        0.055997634218117
        0.026933432489524
        0.007063471034443
        0.001119890190459
       -0.000873747762947
       -0.004897750167969
       -0.016428822209011
       -0.027471485637019
        0.024348451245819
        0.042451692284010
        0.020798106043779
        0.005747140638180
        0.000000000000000
        0.000000000000000
       -0.001742127103752
       -0.004204242248338
       -0.002240528108668
        0.012828005029632
        0.016642334384861
        0.009021323354190
        0.002579086745544
        0.000000000000000
        0.000000000000000
       -0.000339598609765
       -0.000508581623496
        0.000787287835158
        0.003557862588314
        0.004172734950075
        0.002275032336978
        0.000000000000000
        0.000000000000000
        0.000000000000000
        0.000000000000000
        0.000000000000000
        0.000263979085099
        0.000565072262369
        0.000000000000000
        0.000000000000000
        0.000000000000000
        0.000000000000000
        0.000000000000000
        0.000000000000000
        0.000000000000000
       -0.001002626528452
       -0.001057242564737
       -0.000415823773198
        0.000000000000000
        0.000000000000000
        0.000000000000000
        0.000000000000000
       -0.001248955993910
       -0.004033058970651
       -0.007055200082888
       -0.006135111968671
       -0.001935562968006
        0.000254281780950
        0.000315971574216
        0.000000000000000
        0.000000000000000
       -0.004469209717366
       -0.015841723819398
       -0.033210858151469
       -0.028093647289368
       -0.002150760035564
        0.004043193083296
        0.001913546917905
        0.000000000000000
       -0.001382111273402
       -0.009169385467344
       -0.039226020887727
       -0.104730387519320
       -0.074528747707597
        0.026952175327813
        0.020751529293142
        0.006109344934218
        0.001027766798768
       -0.001810431289077
       -0.010504812147970
       -0.048094417733989
       -0.127580872796350
       -0.000008566043931
        0.127545346791430
        0.048077831445906
        0.010497561748382
        0.001808843655627
       -0.001046762714050
       -0.006223917367445
       -0.021306264782786
       -0.028389953081059
        0.074518977094571
        0.106130057595986
        0.039757525986883
        0.009273593228890
        0.001399025500863
        0.000000000000000
       -0.001999297084113
       -0.004350843879332
        0.001602852942101
        0.028091369943832
        0.033749240103272
        0.016140446436193
        0.004550747043454
        0.000000000000000
        0.000000000000000
       -0.000347689139607
       -0.000338979267598
        0.001825266321093
        0.006134758455433
        0.007163836272638
        0.004115672804246
        0.001279636145433
        0.000000000000000
        0.000000000000000
        0.000000000000000
        0.000000000000000
        0.000397781240632
        0.001057191887440
        0.001020517716912
        0.000000000000000
        0.000000000000000
        0.000000000000000
        0.000000000000000
        0.000000000000000
        0.000000000000000
       -0.000898393798312
       -0.000808400616346
        0.000000000000000
        0.000000000000000
        0.000000000000000
        0.000000000000000
        0.000000000000000
       -0.001156107374867
       -0.003623300780556
       -0.006127886214696
       -0.005043447460220
       -0.001578024923390
        0.000085824039747
        0.000000000000000
        0.000000000000000
        0.000000000000000
       -0.003947393032454
       -0.013864981710973
       -0.028250410947558
       -0.020180113014824
       -0.002336447813934
        0.002551968190531
        0.001245267485245
        0.000000000000000
       -0.001197307439274
       -0.007621337828927
       -0.031975886715996
       -0.084625231486950
       -0.043518512053328
        0.013778463339881
        0.013504009348296
        0.004424322332462
        0.000000000000000
       -0.001263053399854
       -0.007936260524720
       -0.031238884207950
       -0.067211685888846
        0.009476574066235
        0.077084598705682
        0.033575622790500
        0.008319467128664
        0.001306902109172
        0.000000000000000
       -0.004234256522742
       -0.012446178695129
       -0.009604690990825
        0.053404531675406
        0.092933987583341
        0.034229856598489
        0.008012919631024
        0.001243429583286
        0.000000000000000
       -0.001200755819861
       -0.002261123795058
        0.003399355251623
        0.022527302250722
        0.030509163295812
        0.014754069649632
        0.004153522087958
        0.000000000000000
        0.000000000000000
        0.000000000000000
       -0.000040596096315
        0.001771052466024
        0.005431814538379
        0.006523200030857
        0.003830363308074
        0.001212619407472
        0.000000000000000
        0.000000000000000
        0.000000000000000
        0.000000000000000
        0.000000000000000
        0.000853276412923
        0.000945364641418
        0.000000000000000
        0.000000000000000
        0.000000000000000
        0.000000000000000
        0.000000000000000
        0.000000000000000
        0.000000000000000
        0.000000000000000
        0.000000000000000
        0.000000000000000
        0.000000000000000
        0.000000000000000
        0.000000000000000
        0.000000000000000
       -0.001688694719098
       -0.002912480118766
       -0.002294586566553
       -0.000724852704820
        0.000000000000000
        0.000000000000000
        0.000000000000000
        0.000000000000000
       -0.001825308714489
       -0.006124532996426
       -0.010628235662503
       -0.007202251919011
       -0.000986057021339
        0.000902759996842
        0.000000000000000
        0.000000000000000
        0.000000000000000
       -0.003511809257948
       -0.011881468270827
       -0.022352938239076
       -0.010658428127342
        0.004248730352103
        0.005068894329825
        0.001821875472620
        0.000000000000000
        0.000000000000000
       -0.003403737932333
       -0.010546724480232
       -0.015701960357414
        0.003572996703155
        0.020195126551381
        0.012042356323741
        0.003726317805466
        0.000000000000000
        0.000000000000000
       -0.001647476761631
       -0.004210671134510
       -0.001700263294428
        0.015155041077260
        0.025943843372827
        0.013218932986604
        0.003816481932529
        0.000000000000000
        0.000000000000000
        0.000000000000000
       -0.000629277155031
        0.001846371771319
        0.008702164451256
        0.011968119915155
        0.006724565580874
        0.001971462641423
        0.000000000000000
        0.000000000000000
        0.000000000000000
        0.000000000000000
        0.000900447179888
        0.002619333763155
        0.003218745361481
        0.001835311879498
        0.000000000000000
        0.000000000000000
        0.000000000000000
        0.000000000000000
        0.000000000000000
        0.000000000000000
        0.000000000000000
        0.000000000000000
        0.000000000000000
        0.000000000000000
        0.000000000000000
        0.000000000000000
        0.000000000000000
        0.000000000000000
        0.000000000000000
        0.000000000000000
        0.000000000000000
        0.000000000000000
        0.000000000000000
        0.000000000000000
        0.000000000000000
        0.000000000000000
        0.000000000000000
       -0.000766533287595
       -0.000618778202407
        0.000000000000000
        0.000000000000000
        0.000000000000000
        0.000000000000000
        0.000000000000000
        0.000000000000000
       -0.001472625225429
       -0.002399825015412
       -0.001604625839493
       -0.000242772148903
        0.000000000000000
        0.000000000000000
        0.000000000000000
        0.000000000000000
       -0.000917409317607
       -0.002675056046952
       -0.003765101986177
       -0.001698360979864
        0.000917462951435
        0.001144521630132
        0.000000000000000
        0.000000000000000
        0.000000000000000
       -0.000862775771957
       -0.002277598702556
       -0.002476935743607
        0.000780358783086
        0.003619787177570
        0.002757055783174
        0.000980817061995
        0.000000000000000
        0.000000000000000
        0.000000000000000
       -0.000860628745743
       -0.000161504814574
        0.002841854301666
        0.004694172246581
        0.003096485318613
        0.001027923148358
        0.000000000000000
        0.000000000000000
        0.000000000000000
        0.000000000000000
        0.000527129287838
        0.002085125950095
        0.002821903357658
        0.001668085738103
        0.000000000000000
        0.000000000000000
        0.000000000000000
        0.000000000000000
        0.000000000000000
        0.000000000000000
        0.000737351418393
        0.000877508103381
        0.000000000000000
        0.000000000000000
        0.000000000000000
        0.000000000000000
        0.000000000000000
        0.000000000000000
        0.000000000000000
        0.000000000000000
        0.000000000000000
        0.000000000000000
        0.000000000000000
        0.000000000000000
        0.000000000000000
        0.000000000000000
        0.000000000000000
        0.000000000000000
        0.000000000000000
        0.000000000000000
        0.000000000000000
        0.000000000000000
        0.000000000000000
        0.000000000000000
        0.000000000000000
        0.000000000000000
        0.000000000000000
        0.000000000000000
        0.000000000000000
        0.000000000000000
        0.000000000000000
        0.000000000000000
        0.000000000000000
        0.000000000000000
        0.000000000000000
        0.000000000000000
        0.000000000000000
        0.000000000000000
        0.000000000000000
        0.000000000000000
        0.000000000000000
        0.000000000000000
        0.000000000000000
        0.000000000000000
       -0.000425573451040
       -0.000208093514987
        0.000000000000000
        0.000000000000000
        0.000000000000000
        0.000000000000000
        0.000000000000000
        0.000000000000000
        0.000000000000000
       -0.000283261768490
        0.000134481457929
        0.000463632484462
        0.000000000000000
        0.000000000000000
        0.000000000000000
        0.000000000000000
        0.000000000000000
        0.000000000000000
        0.000000000000000
        0.000388515404722
        0.000579340752460
        0.000000000000000
        0.000000000000000
        0.000000000000000
        0.000000000000000
        0.000000000000000
        0.000000000000000
        0.000000000000000
        0.000000000000000
        0.000000000000000
        0.000000000000000
        0.000000000000000
        0.000000000000000
        0.000000000000000
        0.000000000000000
        0.000000000000000
        0.000000000000000
        0.000000000000000
        0.000000000000000
        0.000000000000000
        0.000000000000000
        0.000000000000000
        0.000000000000000
        0.000000000000000
        0.000000000000000
        0.000000000000000
        0.000000000000000
        0.000000000000000
        0.000000000000000
        0.000000000000000
        0.000000000000000
END_DATAGRID_3D
END_BLOCK_DATAGRID_3D
