ATOMS
         C    7.558905    7.558905    7.558905
         H    8.755769    8.755769    8.755769
         H    6.362040    6.362040    8.755769
         H    8.755769    6.362040    6.362040
         H    6.362040    8.755769    6.362040
BEGIN_BLOCK_DATAGRID_3D
units: coords = b, function = 1/hbar/H*b^-2
BEGIN_DATAGRID_3D_function
      9      9      9
0.0 0.0 0.0
   15.117809    0.000000    0.000000
    0.000000   15.117809    0.000000
    0.000000    0.000000   15.117809
        0.000000000000000
        0.000000000000000
        0.000000000000000
        0.000000000000000
        0.000000000000000
        0.000000000000000
        0.000000000000000
        0.000000000000000
        0.000000000000000
        0.000000000000000
        0.000000000000000
        0.000000000000000
        0.000000000000000
        0.000000000000000
        0.000000000000000
        0.000000000000000
        0.000000000000000
        0.000000000000000
        0.000000000000000
        0.000000000000000
        0.000000000000000
        0.000000000000000
        0.000000000000000
        0.000000000000000
        0.000000000000000
        0.000000000000000
        0.000000000000000
        0.000000000000000
        0.000000000000000
        0.000000000000000
        0.000000000000000
       -0.000000000008533
        0.000000000005255
        0.000000000000000
        0.000000000000000
        0.000000000000000
        0.000000000000000
        0.000000000000000
        0.000000000000000
       -0.000000000003081
       -0.000000000002264
        0.000000000003072
        0.000000000000000
        0.000000000000000
        0.000000000000000
        0.000000000000000
        0.000000000000000
        0.000000000000000
       -0.000000000006875
        0.000000000008525
        0.000000000000000
        0.000000000000000
        0.000000000000000
        0.000000000000000
        0.000000000000000
        0.000000000000000
        0.000000000000000
        0.000000000000000
        0.000000000000000
        0.000000000000000
        0.000000000000000
        0.000000000000000
        0.000000000000000
        0.000000000000000
        0.000000000000000
        0.000000000000000
        0.000000000000000
        0.000000000000000
        0.000000000000000
        0.000000000000000
        0.000000000000000
        0.000000000000000
        0.000000000000000
        0.000000000000000
        0.000000000000000
        0.000000000000000
        0.000000000000000
        0.000000000000000
        0.000000000000000
        0.000000000000000
        0.000000000000000
        0.000000000000000
        0.000000000000000
        0.000000000000000
        0.000000000000000
        0.000000000000000
        0.000000000000000
        0.000000000000000
        0.000000000000000
        0.000000000000000
        0.000000000000000
        0.000000000000000
        0.000000000000000
        0.000000000000000
       -0.000000000006230
        0.000000000007037
        0.000000000000000
        0.000000000000000
        0.000000000000000
        0.000000000000000
        0.000000000000000
        0.000000000000000
       -0.000000000018667
        0.000000000006949
       -0.000000000005103
        0.000000000012264
        0.000000000000000
        0.000000000000000
        0.000000000000000
        0.000000000000000
       -0.000000000011272
       -0.000000000030133
       -0.000000000088437
        0.000000000050648
        0.000000000045994
       -0.000000000003081
        0.000000000000000
        0.000000000000000
        0.000000000002072
       -0.000000000011086
       -0.000000000172327
        0.000000000023041
        0.000000000174306
        0.000000000016352
       -0.000000000000913
        0.000000000000000
        0.000000000000000
        0.000000000004691
       -0.000000000049742
       -0.000000000046392
        0.000000000090367
        0.000000000034523
        0.000000000008461
        0.000000000000000
        0.000000000000000
        0.000000000000000
        0.000000000000000
       -0.000000000008954
        0.000000000001333
       -0.000000000001673
        0.000000000015856
        0.000000000000000
        0.000000000000000
        0.000000000000000
        0.000000000000000
        0.000000000000000
        0.000000000000000
       -0.000000000005427
        0.000000000007385
        0.000000000000000
        0.000000000000000
        0.000000000000000
        0.000000000000000
        0.000000000000000
        0.000000000000000
        0.000000000000000
        0.000000000000000
        0.000000000000000
        0.000000000000000
        0.000000000000000
        0.000000000000000
        0.000000000000000
        0.000000000000000
        0.000000000000000
        0.000000000000000
        0.000000000000000
        0.000000000000000
        0.000000000000000
        0.000000000000000
        0.000000000000000
        0.000000000000000
        0.000000000000000
        0.000000000000000
        0.000000000000000
       -0.000000000013208
       -0.000000000004489
        0.000000000004489
        0.000000000007224
        0.000000000000000
        0.000000000000000
        0.000000000000000
        0.000000000000000
       -0.000000000026283
        0.000000000005402
        0.000000000027073
       -0.000000000051169
       -0.000000000010888
        0.000000000003323
        0.000000000000000
        0.000000000000000
        0.000000000002146
       -0.000000000057098
        0.000000000731489
        0.000000001369056
       -0.000000000817361
       -0.000000000847944
        0.000000000056944
        0.000000000000000
        0.000000000000000
       -0.000000000019962
        0.000000000295029
        0.000000003281349
       -0.000000000425921
       -0.000000003328080
       -0.000000000304862
        0.000000000024544
        0.000000000000000
        0.000000000000000
       -0.000000000059381
        0.000000000877603
        0.000000001033003
       -0.000000001413912
       -0.000000000747127
        0.000000000060676
       -0.000000000004472
        0.000000000000000
        0.000000000000000
       -0.000000000001604
        0.000000000003848
        0.000000000081742
       -0.000000000036805
       -0.000000000001953
        0.000000000018372
        0.000000000000000
        0.000000000000000
        0.000000000000000
        0.000000000000000
       -0.000000000005520
       -0.000000000007044
        0.000000000009019
        0.000000000010866
        0.000000000000000
        0.000000000000000
        0.000000000000000
        0.000000000000000
        0.000000000000000
        0.000000000000000
        0.000000000000000
        0.000000000000000
        0.000000000000000
        0.000000000000000
        0.000000000000000
        0.000000000000000
        0.000000000000000
        0.000000000000000
        0.000000000000000
        0.000000000000000
       -0.000000000003072
        0.000000000000249
        0.000000000000000
        0.000000000000000
        0.000000000000000
        0.000000000000000
        0.000000000000000
       -0.000000000008440
       -0.000000000015488
        0.000000000010402
       -0.000000000009023
        0.000000000010225
       -0.000000000000078
        0.000000000000000
        0.000000000000000
       -0.000000000003640
       -0.000000000012860
        0.000000000144232
       -0.000000000078454
       -0.000000000231548
       -0.000000000039175
        0.000000000003123
        0.000000000000000
        0.000000000000000
       -0.000000000051057
        0.000000000652036
        0.000000002336773
       -0.000000004250802
       -0.000000007819935
       -0.000000000443438
        0.000000000037868
        0.000000000000428
        0.000000000001344
       -0.000000000169458
        0.000000002826796
        0.000000014106969
       -0.000000001955811
       -0.000000014935009
       -0.000000002803663
        0.000000000172414
       -0.000000000000555
       -0.000000000000577
       -0.000000000033049
        0.000000000484998
        0.000000007261548
        0.000000003434206
       -0.000000002469431
       -0.000000000649134
        0.000000000051719
        0.000000000000000
        0.000000000000000
       -0.000000000002643
        0.000000000050252
        0.000000000272588
        0.000000000104654
       -0.000000000140827
        0.000000000012836
        0.000000000001819
        0.000000000000000
        0.000000000000000
        0.000000000000008
       -0.000000000009764
        0.000000000013758
       -0.000000000007863
        0.000000000016036
        0.000000000006604
        0.000000000000000
        0.000000000000000
        0.000000000000000
        0.000000000000000
        0.000000000000000
       -0.000000000000399
        0.000000000003863
        0.000000000000000
        0.000000000000000
        0.000000000000000
        0.000000000000000
        0.000000000000000
        0.000000000000000
        0.000000000000000
        0.000000000000399
       -0.000000000010264
        0.000000000000249
        0.000000000000000
        0.000000000000000
        0.000000000000000
        0.000000000000000
       -0.000000000000008
       -0.000000000012374
        0.000000000004215
       -0.000000000007741
        0.000000000010866
       -0.000000000011811
       -0.000000000000078
        0.000000000000000
        0.000000000000000
       -0.000000000005319
        0.000000000027404
       -0.000000000091090
       -0.000000000237511
       -0.000000000092811
        0.000000000038092
       -0.000000000004782
        0.000000000000000
        0.000000000000577
       -0.000000000112729
        0.000000001462112
       -0.000000003841612
       -0.000000009655716
       -0.000000004449270
        0.000000001462724
       -0.000000000106220
        0.000000000000428
       -0.000000000000000
       -0.000000000000000
       -0.000000000000000
        0.000000000000000
       -0.000000000000000
       -0.000000000000000
        0.000000000000000
        0.000000000000000
       -0.000000000000000
       -0.000000000000577
        0.000000000112729
       -0.000000001462112
        0.000000003841612
        0.000000009655716
        0.000000004449270
       -0.000000001462724
        0.000000000106220
       -0.000000000000428
        0.000000000000000
        0.000000000005319
       -0.000000000027404
        0.000000000091090
        0.000000000237511
        0.000000000092811
       -0.000000000038092
        0.000000000004782
        0.000000000000000
        0.000000000000000
        0.000000000000008
        0.000000000012374
       -0.000000000004215
        0.000000000007741
       -0.000000000010866
        0.000000000011811
        0.000000000000078
        0.000000000000000
        0.000000000000000
        0.000000000000000
        0.000000000000000
       -0.000000000000399
        0.000000000010264
       -0.000000000000249
        0.000000000000000
        0.000000000000000
        0.000000000000000
        0.000000000000000
        0.000000000000000
        0.000000000000000
        0.000000000000399
       -0.000000000003863
        0.000000000000000
        0.000000000000000
        0.000000000000000
        0.000000000000000
        0.000000000000000
       -0.000000000000008
        0.000000000009764
       -0.000000000013758
        0.000000000007863
       -0.000000000016036
       -0.000000000006604
        0.000000000000000
        0.000000000000000
        0.000000000000000
        0.000000000002643
       -0.000000000050252
       -0.000000000272588
       -0.000000000104654
        0.000000000140827
       -0.000000000012836
       -0.000000000001819
        0.000000000000000
        0.000000000000577
        0.000000000033049
       -0.000000000484998
       -0.000000007261548
       -0.000000003434206
        0.000000002469431
        0.000000000649134
       -0.000000000051719
        0.000000000000000
       -0.000000000001344
        0.000000000169458
       -0.000000002826796
       -0.000000014106969
        0.000000001955811
        0.000000014935009
        0.000000002803663
       -0.000000000172414
        0.000000000000555
        0.000000000000000
        0.000000000051057
       -0.000000000652036
       -0.000000002336773
        0.000000004250802
        0.000000007819935
        0.000000000443438
       -0.000000000037868
       -0.000000000000428
        0.000000000000000
        0.000000000003640
        0.000000000012860
       -0.000000000144232
        0.000000000078454
        0.000000000231548
        0.000000000039175
       -0.000000000003123
        0.000000000000000
        0.000000000000000
        0.000000000000000
        0.000000000008440
        0.000000000015488
       -0.000000000010402
        0.000000000009023
       -0.000000000010225
        0.000000000000078
        0.000000000000000
        0.000000000000000
        0.000000000000000
        0.000000000000000
        0.000000000000000
        0.000000000003072
       -0.000000000000249
        0.000000000000000
        0.000000000000000
        0.000000000000000
        0.000000000000000
        0.000000000000000
        0.000000000000000
        0.000000000000000
        0.000000000000000
        0.000000000000000
        0.000000000000000
        0.000000000000000
        0.000000000000000
        0.000000000000000
        0.000000000000000
        0.000000000005520
        0.000000000007044
       -0.000000000009019
       -0.000000000010866
        0.000000000000000
        0.000000000000000
        0.000000000000000
        0.000000000000000
        0.000000000001604
       -0.000000000003848
       -0.000000000081742
        0.000000000036805
        0.000000000001953
       -0.000000000018372
        0.000000000000000
        0.000000000000000
        0.000000000000000
        0.000000000059381
       -0.000000000877603
       -0.000000001033003
        0.000000001413912
        0.000000000747127
       -0.000000000060676
        0.000000000004472
        0.000000000000000
        0.000000000000000
        0.000000000019962
       -0.000000000295029
       -0.000000003281349
        0.000000000425921
        0.000000003328080
        0.000000000304862
       -0.000000000024544
        0.000000000000000
        0.000000000000000
       -0.000000000002146
        0.000000000057098
       -0.000000000731489
       -0.000000001369056
        0.000000000817361
        0.000000000847944
       -0.000000000056944
        0.000000000000000
        0.000000000000000
        0.000000000000000
        0.000000000026283
       -0.000000000005402
       -0.000000000027073
        0.000000000051169
        0.000000000010888
       -0.000000000003323
        0.000000000000000
        0.000000000000000
        0.000000000000000
        0.000000000000000
        0.000000000013208
        0.000000000004489
       -0.000000000004489
       -0.000000000007224
        0.000000000000000
        0.000000000000000
        0.000000000000000
        0.000000000000000
        0.000000000000000
        0.000000000000000
        0.000000000000000
        0.000000000000000
        0.000000000000000
        0.000000000000000
        0.000000000000000
        0.000000000000000
        0.000000000000000
        0.000000000000000
        0.000000000000000
        0.000000000000000
        0.000000000000000
        0.000000000000000
        0.000000000000000
        0.000000000000000
        0.000000000000000
        0.000000000000000
        0.000000000000000
        0.000000000005427
       -0.000000000007385
        0.000000000000000
        0.000000000000000
        0.000000000000000
        0.000000000000000
        0.000000000000000
        0.000000000000000
        0.000000000008954
       -0.000000000001333
        0.000000000001673
       -0.000000000015856
        0.000000000000000
        0.000000000000000
        0.000000000000000
        0.000000000000000
       -0.000000000004691
        0.000000000049742
        0.000000000046392
       -0.000000000090367
       -0.000000000034523
       -0.000000000008461
        0.000000000000000
        0.000000000000000
        0.000000000000000
       -0.000000000002072
        0.000000000011086
        0.000000000172327
       -0.000000000023041
       -0.000000000174306
       -0.000000000016352
        0.000000000000913
        0.000000000000000
        0.000000000000000
        0.000000000000000
        0.000000000011272
        0.000000000030133
        0.000000000088437
       -0.000000000050648
       -0.000000000045994
        0.000000000003081
        0.000000000000000
        0.000000000000000
        0.000000000000000
        0.000000000000000
        0.000000000018667
       -0.000000000006949
        0.000000000005103
       -0.000000000012264
        0.000000000000000
        0.000000000000000
        0.000000000000000
        0.000000000000000
        0.000000000000000
        0.000000000000000
        0.000000000006230
       -0.000000000007037
        0.000000000000000
        0.000000000000000
        0.000000000000000
        0.000000000000000
        0.000000000000000
        0.000000000000000
        0.000000000000000
        0.000000000000000
        0.000000000000000
        0.000000000000000
        0.000000000000000
        0.000000000000000
        0.000000000000000
        0.000000000000000
        0.000000000000000
        0.000000000000000
        0.000000000000000
        0.000000000000000
        0.000000000000000
        0.000000000000000
        0.000000000000000
        0.000000000000000
        0.000000000000000
        0.000000000000000
        0.000000000000000
        0.000000000000000
        0.000000000000000
        0.000000000000000
        0.000000000000000
        0.000000000000000
        0.000000000000000
        0.000000000000000
        0.000000000000000
        0.000000000000000
        0.000000000000000
        0.000000000000000
        0.000000000000000
        0.000000000000000
        0.000000000000000
        0.000000000000000
        0.000000000000000
        0.000000000000000
        0.000000000006875
       -0.000000000008525
        0.000000000000000
        0.000000000000000
        0.000000000000000
        0.000000000000000
        0.000000000000000
        0.000000000000000
        0.000000000000000
        0.000000000003081
        0.000000000002264
       -0.000000000003072
        0.000000000000000
        0.000000000000000
        0.000000000000000
        0.000000000000000
        0.000000000000000
        0.000000000000000
        0.000000000000000
        0.000000000008533
       -0.000000000005255
        0.000000000000000
        0.000000000000000
        0.000000000000000
        0.000000000000000
        0.000000000000000
        0.000000000000000
        0.000000000000000
        0.000000000000000
        0.000000000000000
        0.000000000000000
        0.000000000000000
        0.000000000000000
        0.000000000000000
        0.000000000000000
        0.000000000000000
        0.000000000000000
        0.000000000000000
        0.000000000000000
        0.000000000000000
        0.000000000000000
        0.000000000000000
        0.000000000000000
        0.000000000000000
        0.000000000000000
        0.000000000000000
        0.000000000000000
        0.000000000000000
        0.000000000000000
        0.000000000000000
        0.000000000000000
END_DATAGRID_3D
END_BLOCK_DATAGRID_3D
