ATOMS
         C    7.558905    7.558905    7.558905
         H    8.755769    8.755769    8.755769
         H    6.362040    6.362040    8.755769
         H    8.755769    6.362040    6.362040
         H    6.362040    8.755769    6.362040
BEGIN_BLOCK_DATAGRID_3D
units: coords = b, function = sqrt(b^-3)
BEGIN_DATAGRID_3D_function
      9      9      9
0.0 0.0 0.0
   15.117809    0.000000    0.000000
    0.000000   15.117809    0.000000
    0.000000    0.000000   15.117809
        0.000000000000000
        0.000000000000000
        0.000000000000000
        0.000000000000000
        0.000000000000000
        0.000000000000000
        0.000000000000000
        0.000000000000000
        0.000000000000000
        0.000000000000000
        0.000000000000000
        0.000000000000000
        0.000000000000000
        0.000000000000000
        0.000000000000000
        0.000000000000000
        0.000000000000000
        0.000000000000000
        0.000000000000000
        0.000000000000000
        0.000000000000000
        0.000000000000000
        0.000000000000000
        0.000000000000000
        0.000000000000000
        0.000000000000000
        0.000000000000000
        0.000000000000000
        0.000000000000000
        0.000000000000000
        0.000000000000000
       -0.000016003566272
        0.000006075958784
        0.000000000000000
        0.000000000000000
        0.000000000000000
        0.000000000000000
        0.000000000000000
        0.000000000000000
       -0.000035293844711
       -0.000014821622630
        0.000015604110557
        0.000000000000000
        0.000000000000000
        0.000000000000000
        0.000000000000000
        0.000000000000000
        0.000000000000000
       -0.000022920045935
       -0.000003881909560
        0.000000000000000
        0.000000000000000
        0.000000000000000
        0.000000000000000
        0.000000000000000
        0.000000000000000
        0.000000000000000
        0.000000000000000
        0.000000000000000
        0.000000000000000
        0.000000000000000
        0.000000000000000
        0.000000000000000
        0.000000000000000
        0.000000000000000
        0.000000000000000
        0.000000000000000
        0.000000000000000
        0.000000000000000
        0.000000000000000
        0.000000000000000
        0.000000000000000
        0.000000000000000
        0.000000000000000
        0.000000000000000
        0.000000000000000
        0.000000000000000
        0.000000000000000
        0.000000000000000
        0.000000000000000
        0.000000000000000
        0.000000000000000
        0.000000000000000
        0.000000000000000
        0.000000000000000
        0.000000000000000
        0.000000000000000
        0.000000000000000
        0.000000000000000
        0.000000000000000
        0.000000000000000
        0.000000000000000
        0.000000000000000
        0.000000000000000
       -0.000034568940478
       -0.000011843238621
        0.000000000000000
        0.000000000000000
        0.000000000000000
        0.000000000000000
        0.000000000000000
        0.000000000000000
       -0.000124776108751
       -0.000104570263268
       -0.000001530359101
        0.000034872981978
        0.000000000000000
        0.000000000000000
        0.000000000000000
        0.000000000000000
       -0.000164111844727
       -0.000267137404446
       -0.000149490686094
        0.000071337322000
        0.000114771387282
        0.000052045007220
        0.000000000000000
        0.000000000000000
       -0.000079902707028
       -0.000228946895994
       -0.000302129304843
       -0.000086011176040
        0.000177937871098
        0.000179123541696
        0.000068542939021
        0.000000000000000
        0.000000000000000
       -0.000062963775128
       -0.000159247452484
       -0.000172901342115
        0.000023452504297
        0.000185541584922
        0.000135078500598
        0.000000000000000
        0.000000000000000
        0.000000000000000
        0.000000000000000
       -0.000055786911071
       -0.000044887755297
        0.000051607192763
        0.000094283290460
        0.000000000000000
        0.000000000000000
        0.000000000000000
        0.000000000000000
        0.000000000000000
        0.000000000000000
       -0.000000446984976
        0.000021495110301
        0.000000000000000
        0.000000000000000
        0.000000000000000
        0.000000000000000
        0.000000000000000
        0.000000000000000
        0.000000000000000
        0.000000000000000
        0.000000000000000
        0.000000000000000
        0.000000000000000
        0.000000000000000
        0.000000000000000
        0.000000000000000
        0.000000000000000
        0.000000000000000
        0.000000000000000
        0.000000000000000
        0.000000000000000
        0.000000000000000
        0.000000000000000
        0.000000000000000
        0.000000000000000
        0.000000000000000
        0.000000000000000
       -0.000165748346162
       -0.000163431170322
       -0.000045428796130
        0.000016302059923
        0.000000000000000
        0.000000000000000
        0.000000000000000
        0.000000000000000
       -0.000334102242879
       -0.000634075037501
       -0.000505997439866
        0.000008054397612
        0.000153747170384
        0.000074284912308
        0.000000000000000
        0.000000000000000
       -0.000237284726182
       -0.000805413839078
       -0.001383960620926
       -0.000860065593899
        0.000502062407469
        0.000537777828572
        0.000208412338584
        0.000000000000000
        0.000000000000000
       -0.000333687514913
       -0.001054418705837
       -0.001745628640637
       -0.000393866816150
        0.001261472957602
        0.000904132149387
        0.000305258389038
        0.000000000000000
        0.000000000000000
       -0.000237105611257
       -0.000676399994621
       -0.000893097929638
        0.000364348965403
        0.001112535976983
        0.000722349165061
        0.000223255725770
        0.000000000000000
        0.000000000000000
       -0.000088642317330
       -0.000217323318182
       -0.000155394432912
        0.000340639243431
        0.000543788369096
        0.000308862549136
        0.000000000000000
        0.000000000000000
        0.000000000000000
        0.000000000000000
       -0.000032167297438
        0.000011375389638
        0.000127629902699
        0.000147609417677
        0.000000000000000
        0.000000000000000
        0.000000000000000
        0.000000000000000
        0.000000000000000
        0.000000000000000
        0.000000000000000
        0.000000000000000
        0.000000000000000
        0.000000000000000
        0.000000000000000
        0.000000000000000
        0.000000000000000
        0.000000000000000
        0.000000000000000
        0.000000000000000
       -0.000067214807376
       -0.000034412105398
        0.000000000000000
        0.000000000000000
        0.000000000000000
        0.000000000000000
        0.000000000000000
       -0.000253753966869
       -0.000479232762318
       -0.000434862092019
       -0.000130987462858
        0.000033271058373
        0.000031453240619
        0.000000000000000
        0.000000000000000
       -0.000285923556030
       -0.001018526847489
       -0.001943640742775
       -0.001672368237291
       -0.000002943049780
        0.000367295736255
        0.000170835765397
        0.000000000000000
        0.000000000000000
       -0.000647155730884
       -0.002390769569184
       -0.005118982309711
       -0.003773300025074
        0.002116423291331
        0.001572114077019
        0.000501454029946
        0.000092434569244
       -0.000126428655719
       -0.000811896775815
       -0.003202257908062
       -0.007233297285949
       -0.001044958950240
        0.006194532175266
        0.002990997505586
        0.000787524149516
        0.000125342965163
       -0.000094753153473
       -0.000533248421743
       -0.001795935656461
       -0.003014830844006
        0.002682977616575
        0.004695982178234
        0.002309713530508
        0.000640749339576
        0.000000000000000
        0.000000000000000
       -0.000189679729278
       -0.000459572690899
       -0.000245851044190
        0.001413485008319
        0.001840976450775
        0.001001863684305
        0.000287541239960
        0.000000000000000
        0.000000000000000
       -0.000036974677950
       -0.000055591119176
        0.000086411536095
        0.000392026904368
        0.000461590066880
        0.000252650048688
        0.000000000000000
        0.000000000000000
        0.000000000000000
        0.000000000000000
        0.000000000000000
        0.000028972858674
        0.000062259435791
        0.000000000000000
        0.000000000000000
        0.000000000000000
        0.000000000000000
        0.000000000000000
        0.000000000000000
        0.000000000000000
       -0.000110039197997
       -0.000116489028469
       -0.000045996132366
        0.000000000000000
        0.000000000000000
        0.000000000000000
        0.000000000000000
       -0.000135984773386
       -0.000440863935825
       -0.000774289077100
       -0.000675977165939
       -0.000214099703899
        0.000028243514712
        0.000035228056670
        0.000000000000000
        0.000000000000000
       -0.000486601471652
       -0.001731719678395
       -0.003644825381165
       -0.003095383795085
       -0.000237842209275
        0.000449026520512
        0.000213342908930
        0.000000000000000
       -0.000149885514513
       -0.000998330509272
       -0.004288066170285
       -0.011494058683194
       -0.008211547826487
        0.002981698549649
        0.002304489030768
        0.000681146739121
        0.000115033501724
       -0.000196333233292
       -0.001143706047136
       -0.005257661459998
       -0.014001692219922
       -0.000001108115436
        0.014109066613345
        0.005338973312048
        0.001170421064937
        0.000202454609191
       -0.000113515597127
       -0.000677637767581
       -0.002329129575905
       -0.003115482701198
        0.008211089192993
        0.011739962432083
        0.004415121744035
        0.001033936440430
        0.000156583635652
        0.000000000000000
       -0.000217679895851
       -0.000475595335532
        0.000175984793082
        0.003095295829418
        0.003733330908214
        0.001792466594073
        0.000507363981456
        0.000000000000000
        0.000000000000000
       -0.000037855445467
       -0.000037050395463
        0.000200331240083
        0.000675963913928
        0.000792466699947
        0.000457068274614
        0.000142666272148
        0.000000000000000
        0.000000000000000
        0.000000000000000
        0.000000000000000
        0.000043657837165
        0.000116487749322
        0.000112886385943
        0.000000000000000
        0.000000000000000
        0.000000000000000
        0.000000000000000
        0.000000000000000
        0.000000000000000
       -0.000098599476690
       -0.000089068571032
        0.000000000000000
        0.000000000000000
        0.000000000000000
        0.000000000000000
        0.000000000000000
       -0.000125875342850
       -0.000396071738767
       -0.000672517119255
       -0.000555694622363
       -0.000174550977363
        0.000009532743503
        0.000000000000000
        0.000000000000000
        0.000000000000000
       -0.000429786375081
       -0.001515634234432
       -0.003100409052722
       -0.002223451464425
       -0.000258409171965
        0.000283417632680
        0.000138835617011
        0.000000000000000
       -0.000129844335589
       -0.000829776051349
       -0.003495530914688
       -0.009287432788774
       -0.004794748792066
        0.001524302377303
        0.001499677796228
        0.000493270280776
        0.000000000000000
       -0.000136972455920
       -0.000864071501038
       -0.003414937838128
       -0.007376244098443
        0.001044500316746
        0.008527128806466
        0.003728613269216
        0.000927559030036
        0.000146274172213
        0.000000000000000
       -0.000461018419514
       -0.001360539153713
       -0.001053942609199
        0.005884609226896
        0.010280334724134
        0.003801235169809
        0.000893388917975
        0.000139168353252
        0.000000000000000
       -0.000130736594353
       -0.000247161343390
        0.000373122834622
        0.002482214975081
        0.003374929876992
        0.001638501200166
        0.000463077852263
        0.000000000000000
        0.000000000000000
        0.000000000000000
       -0.000004435687002
        0.000194379319272
        0.000598509567649
        0.000721599498049
        0.000425383597429
        0.000135194772997
        0.000000000000000
        0.000000000000000
        0.000000000000000
        0.000000000000000
        0.000000000000000
        0.000094021496772
        0.000104573309803
        0.000000000000000
        0.000000000000000
        0.000000000000000
        0.000000000000000
        0.000000000000000
        0.000000000000000
        0.000000000000000
        0.000000000000000
        0.000000000000000
        0.000000000000000
        0.000000000000000
        0.000000000000000
        0.000000000000000
        0.000000000000000
       -0.000184598756088
       -0.000319635075411
       -0.000252820571656
       -0.000080178840717
        0.000000000000000
        0.000000000000000
        0.000000000000000
        0.000000000000000
       -0.000198738002101
       -0.000669489979232
       -0.001166414870932
       -0.000793546390575
       -0.000109060381107
        0.000100257242836
        0.000000000000000
        0.000000000000000
        0.000000000000000
       -0.000382360493102
       -0.001298806930710
       -0.002453162167274
       -0.001174315421508
        0.000470031301828
        0.000562932151924
        0.000203121131201
        0.000000000000000
        0.000000000000000
       -0.000370593852590
       -0.001152896308090
       -0.001723211947446
        0.000393778850483
        0.002234015741337
        0.001337360965197
        0.000415448501348
        0.000000000000000
        0.000000000000000
       -0.000179375424201
       -0.000460274351801
       -0.000186557287228
        0.001669912331690
        0.002869924419743
        0.001468019107850
        0.000425501279076
        0.000000000000000
        0.000000000000000
        0.000000000000000
       -0.000068786461548
        0.000202653524502
        0.000958863126043
        0.001323921034472
        0.000746798453052
        0.000219797426718
        0.000000000000000
        0.000000000000000
        0.000000000000000
        0.000000000000000
        0.000098827192478
        0.000288613507634
        0.000356060386034
        0.000203817594266
        0.000000000000000
        0.000000000000000
        0.000000000000000
        0.000000000000000
        0.000000000000000
        0.000000000000000
        0.000000000000000
        0.000000000000000
        0.000000000000000
        0.000000000000000
        0.000000000000000
        0.000000000000000
        0.000000000000000
        0.000000000000000
        0.000000000000000
        0.000000000000000
        0.000000000000000
        0.000000000000000
        0.000000000000000
        0.000000000000000
        0.000000000000000
        0.000000000000000
        0.000000000000000
       -0.000084127424113
       -0.000068175862963
        0.000000000000000
        0.000000000000000
        0.000000000000000
        0.000000000000000
        0.000000000000000
        0.000000000000000
       -0.000160979142455
       -0.000263371930477
       -0.000176797861720
       -0.000026852713500
        0.000000000000000
        0.000000000000000
        0.000000000000000
        0.000000000000000
       -0.000099886245671
       -0.000292415405459
       -0.000413204241046
       -0.000187120222292
        0.000101497504594
        0.000127104291593
        0.000000000000000
        0.000000000000000
        0.000000000000000
       -0.000093937511825
       -0.000248967435294
       -0.000271828532174
        0.000085997924030
        0.000400429124950
        0.000306188247630
        0.000109351389797
        0.000000000000000
        0.000000000000000
        0.000000000000000
       -0.000094077809144
       -0.000017716038600
        0.000313138161723
        0.000519274713192
        0.000343883268521
        0.000114603006397
        0.000000000000000
        0.000000000000000
        0.000000000000000
        0.000000000000000
        0.000057854955067
        0.000229752600580
        0.000312161949005
        0.000185246672211
        0.000000000000000
        0.000000000000000
        0.000000000000000
        0.000000000000000
        0.000000000000000
        0.000000000000000
        0.000081247833911
        0.000097066970519
        0.000000000000000
        0.000000000000000
        0.000000000000000
        0.000000000000000
        0.000000000000000
        0.000000000000000
        0.000000000000000
        0.000000000000000
        0.000000000000000
        0.000000000000000
        0.000000000000000
        0.000000000000000
        0.000000000000000
        0.000000000000000
        0.000000000000000
        0.000000000000000
        0.000000000000000
        0.000000000000000
        0.000000000000000
        0.000000000000000
        0.000000000000000
        0.000000000000000
        0.000000000000000
        0.000000000000000
        0.000000000000000
        0.000000000000000
        0.000000000000000
        0.000000000000000
        0.000000000000000
        0.000000000000000
        0.000000000000000
        0.000000000000000
        0.000000000000000
        0.000000000000000
        0.000000000000000
        0.000000000000000
        0.000000000000000
        0.000000000000000
        0.000000000000000
        0.000000000000000
        0.000000000000000
        0.000000000000000
       -0.000046706572082
       -0.000022927225681
        0.000000000000000
        0.000000000000000
        0.000000000000000
        0.000000000000000
        0.000000000000000
        0.000000000000000
        0.000000000000000
       -0.000031087516121
        0.000014820343483
        0.000051286143019
        0.000000000000000
        0.000000000000000
        0.000000000000000
        0.000000000000000
        0.000000000000000
        0.000000000000000
        0.000000000000000
        0.000042810255668
        0.000064085245621
        0.000000000000000
        0.000000000000000
        0.000000000000000
        0.000000000000000
        0.000000000000000
        0.000000000000000
        0.000000000000000
        0.000000000000000
        0.000000000000000
        0.000000000000000
        0.000000000000000
        0.000000000000000
        0.000000000000000
        0.000000000000000
        0.000000000000000
        0.000000000000000
        0.000000000000000
        0.000000000000000
        0.000000000000000
        0.000000000000000
        0.000000000000000
        0.000000000000000
        0.000000000000000
        0.000000000000000
        0.000000000000000
        0.000000000000000
        0.000000000000000
        0.000000000000000
        0.000000000000000
        0.000000000000000
END_DATAGRID_3D
END_BLOCK_DATAGRID_3D
