ATOMS
         C    7.558905    7.558905    7.558905
         H    8.755769    8.755769    8.755769
         H    6.362040    6.362040    8.755769
         H    8.755769    6.362040    6.362040
         H    6.362040    8.755769    6.362040
BEGIN_BLOCK_DATAGRID_3D
units: coords = b, function = 1/hbar/H*b^-2
BEGIN_DATAGRID_3D_function
      9      9      9
0.0 0.0 0.0
   15.117809    0.000000    0.000000
    0.000000   15.117809    0.000000
    0.000000    0.000000   15.117809
        0.000000000000000
        0.000000000000000
        0.000000000000000
        0.000000000000000
        0.000000000000000
        0.000000000000000
        0.000000000000000
        0.000000000000000
        0.000000000000000
        0.000000000000000
        0.000000000000000
        0.000000000000000
        0.000000000000000
        0.000000000000000
        0.000000000000000
        0.000000000000000
        0.000000000000000
        0.000000000000000
        0.000000000000000
        0.000000000000000
        0.000000000000000
        0.000000000000000
        0.000000000000000
        0.000000000000000
        0.000000000000000
        0.000000000000000
        0.000000000000000
        0.000000000000000
        0.000000000000000
        0.000000000000000
        0.000000000000000
       -0.000000003469512
        0.000000002229809
        0.000000000000000
        0.000000000000000
        0.000000000000000
        0.000000000000000
        0.000000000000000
        0.000000000000000
       -0.000000002823040
       -0.000000000005687
        0.000000002824383
        0.000000000000000
        0.000000000000000
        0.000000000000000
        0.000000000000000
        0.000000000000000
        0.000000000000000
       -0.000000002235389
        0.000000003461847
        0.000000000000000
        0.000000000000000
        0.000000000000000
        0.000000000000000
        0.000000000000000
        0.000000000000000
        0.000000000000000
        0.000000000000000
        0.000000000000000
        0.000000000000000
        0.000000000000000
        0.000000000000000
        0.000000000000000
        0.000000000000000
        0.000000000000000
        0.000000000000000
        0.000000000000000
        0.000000000000000
        0.000000000000000
        0.000000000000000
        0.000000000000000
        0.000000000000000
        0.000000000000000
        0.000000000000000
        0.000000000000000
        0.000000000000000
        0.000000000000000
        0.000000000000000
        0.000000000000000
        0.000000000000000
        0.000000000000000
        0.000000000000000
        0.000000000000000
        0.000000000000000
        0.000000000000000
        0.000000000000000
        0.000000000000000
        0.000000000000000
        0.000000000000000
        0.000000000000000
        0.000000000000000
        0.000000000000000
        0.000000000000000
        0.000000000000000
       -0.000000001925037
        0.000000001740915
        0.000000000000000
        0.000000000000000
        0.000000000000000
        0.000000000000000
        0.000000000000000
        0.000000000000000
       -0.000000005971806
       -0.000000002522189
        0.000000001259299
        0.000000004376794
        0.000000000000000
        0.000000000000000
        0.000000000000000
        0.000000000000000
       -0.000000005117182
       -0.000000013251554
       -0.000000028765113
        0.000000025385213
        0.000000010871741
        0.000000000022615
        0.000000000000000
        0.000000000000000
        0.000000000152733
       -0.000000009565593
       -0.000000049892805
       -0.000000000070241
        0.000000049976938
        0.000000009638903
       -0.000000000148446
        0.000000000000000
        0.000000000000000
       -0.000000000017156
       -0.000000010806779
       -0.000000025374635
        0.000000028730946
        0.000000013287184
        0.000000005151471
        0.000000000000000
        0.000000000000000
        0.000000000000000
        0.000000000000000
       -0.000000004359517
       -0.000000001258404
        0.000000002517988
        0.000000005994064
        0.000000000000000
        0.000000000000000
        0.000000000000000
        0.000000000000000
        0.000000000000000
        0.000000000000000
       -0.000000001741477
        0.000000001923847
        0.000000000000000
        0.000000000000000
        0.000000000000000
        0.000000000000000
        0.000000000000000
        0.000000000000000
        0.000000000000000
        0.000000000000000
        0.000000000000000
        0.000000000000000
        0.000000000000000
        0.000000000000000
        0.000000000000000
        0.000000000000000
        0.000000000000000
        0.000000000000000
        0.000000000000000
        0.000000000000000
        0.000000000000000
        0.000000000000000
        0.000000000000000
        0.000000000000000
        0.000000000000000
        0.000000000000000
        0.000000000000000
       -0.000000004153882
       -0.000000003835976
        0.000000002620260
        0.000000002562791
        0.000000000000000
        0.000000000000000
        0.000000000000000
        0.000000000000000
       -0.000000008671846
        0.000000005313485
        0.000000036703908
       -0.000000031801753
       -0.000000019125002
        0.000000001970228
        0.000000000000000
        0.000000000000000
       -0.000000001552933
       -0.000000004703654
        0.000000381694639
        0.000000593789110
       -0.000000588858208
       -0.000000340320676
        0.000000013652418
        0.000000000000000
        0.000000000000000
       -0.000000012835732
        0.000000228531194
        0.000001434007996
        0.000000001904119
       -0.000001438859536
       -0.000000231140514
        0.000000012937394
        0.000000000000000
        0.000000000000000
       -0.000000013600404
        0.000000337544226
        0.000000590172836
       -0.000000592687577
       -0.000000384265275
        0.000000004463287
        0.000000001583604
        0.000000000000000
        0.000000000000000
       -0.000000001958426
        0.000000018922902
        0.000000032141433
       -0.000000036596000
       -0.000000005503304
        0.000000008716813
        0.000000000000000
        0.000000000000000
        0.000000000000000
        0.000000000000000
       -0.000000002556256
       -0.000000002617734
        0.000000003835952
        0.000000004163239
        0.000000000000000
        0.000000000000000
        0.000000000000000
        0.000000000000000
        0.000000000000000
        0.000000000000000
        0.000000000000000
        0.000000000000000
        0.000000000000000
        0.000000000000000
        0.000000000000000
        0.000000000000000
        0.000000000000000
        0.000000000000000
        0.000000000000000
        0.000000000000000
       -0.000000001265543
       -0.000000000055036
        0.000000000000000
        0.000000000000000
        0.000000000000000
        0.000000000000000
        0.000000000000000
       -0.000000002902619
       -0.000000007588703
        0.000000000998551
       -0.000000000417634
        0.000000003583187
       -0.000000000032486
        0.000000000000000
        0.000000000000000
       -0.000000002001548
        0.000000000665479
        0.000000102288753
       -0.000000060828003
       -0.000000213879089
       -0.000000016897356
        0.000000001810669
        0.000000000000000
        0.000000000000000
       -0.000000019920472
        0.000000358022532
        0.000000995442914
       -0.000001810108790
       -0.000003239583667
       -0.000000334484924
        0.000000014783934
       -0.000000000149147
       -0.000000001015883
       -0.000000033853437
        0.000001157730244
        0.000003011645023
        0.000000034549570
       -0.000003039906214
       -0.000001166619577
        0.000000033770180
        0.000000001038165
        0.000000000148965
       -0.000000014676566
        0.000000330960840
        0.000003222044964
        0.000001826427311
       -0.000000999476854
       -0.000000361310234
        0.000000019994152
        0.000000000000000
        0.000000000000000
       -0.000000001779094
        0.000000016692437
        0.000000212689833
        0.000000062141903
       -0.000000102828803
       -0.000000000833550
        0.000000002020058
        0.000000000000000
        0.000000000000000
        0.000000000032710
       -0.000000003564778
        0.000000000431648
       -0.000000000978621
        0.000000007599253
        0.000000002913448
        0.000000000000000
        0.000000000000000
        0.000000000000000
        0.000000000000000
        0.000000000000000
        0.000000000054127
        0.000000001265005
        0.000000000000000
        0.000000000000000
        0.000000000000000
        0.000000000000000
        0.000000000000000
        0.000000000000000
        0.000000000000000
       -0.000000000054127
       -0.000000003757949
       -0.000000000055036
        0.000000000000000
        0.000000000000000
        0.000000000000000
        0.000000000000000
       -0.000000000032710
       -0.000000005149212
        0.000000001626841
       -0.000000000786791
        0.000000001641847
       -0.000000005157341
       -0.000000000032486
        0.000000000000000
        0.000000000000000
       -0.000000004368896
        0.000000039966115
       -0.000000078492512
       -0.000000222572685
       -0.000000079853424
        0.000000040369374
       -0.000000004384188
        0.000000000000000
       -0.000000000148965
       -0.000000022380392
        0.000000497913101
       -0.000001623445597
       -0.000004296198556
       -0.000001639426475
        0.000000501190635
       -0.000000022351168
       -0.000000000149147
       -0.000000000000000
        0.000000000000000
        0.000000000000000
       -0.000000000000000
        0.000000000000000
       -0.000000000000000
       -0.000000000000000
        0.000000000000000
        0.000000000000000
        0.000000000148965
        0.000000022380392
       -0.000000497913101
        0.000001623445597
        0.000004296198556
        0.000001639426475
       -0.000000501190635
        0.000000022351168
        0.000000000149147
        0.000000000000000
        0.000000004368896
       -0.000000039966115
        0.000000078492512
        0.000000222572685
        0.000000079853424
       -0.000000040369374
        0.000000004384188
        0.000000000000000
        0.000000000000000
        0.000000000032710
        0.000000005149212
       -0.000000001626841
        0.000000000786791
       -0.000000001641847
        0.000000005157341
        0.000000000032486
        0.000000000000000
        0.000000000000000
        0.000000000000000
        0.000000000000000
        0.000000000054127
        0.000000003757949
        0.000000000055036
        0.000000000000000
        0.000000000000000
        0.000000000000000
        0.000000000000000
        0.000000000000000
        0.000000000000000
       -0.000000000054127
       -0.000000001265005
        0.000000000000000
        0.000000000000000
        0.000000000000000
        0.000000000000000
        0.000000000000000
       -0.000000000032710
        0.000000003564778
       -0.000000000431648
        0.000000000978621
       -0.000000007599253
       -0.000000002913448
        0.000000000000000
        0.000000000000000
        0.000000000000000
        0.000000001779094
       -0.000000016692437
       -0.000000212689833
       -0.000000062141903
        0.000000102828803
        0.000000000833550
       -0.000000002020058
        0.000000000000000
       -0.000000000148965
        0.000000014676566
       -0.000000330960840
       -0.000003222044964
       -0.000001826427311
        0.000000999476854
        0.000000361310234
       -0.000000019994152
        0.000000000000000
        0.000000001015883
        0.000000033853437
       -0.000001157730244
       -0.000003011645023
       -0.000000034549570
        0.000003039906214
        0.000001166619577
       -0.000000033770180
       -0.000000001038165
        0.000000000000000
        0.000000019920472
       -0.000000358022532
       -0.000000995442914
        0.000001810108790
        0.000003239583667
        0.000000334484924
       -0.000000014783934
        0.000000000149147
        0.000000000000000
        0.000000002001548
       -0.000000000665479
       -0.000000102288753
        0.000000060828003
        0.000000213879089
        0.000000016897356
       -0.000000001810669
        0.000000000000000
        0.000000000000000
        0.000000000000000
        0.000000002902619
        0.000000007588703
       -0.000000000998551
        0.000000000417634
       -0.000000003583187
        0.000000000032486
        0.000000000000000
        0.000000000000000
        0.000000000000000
        0.000000000000000
        0.000000000000000
        0.000000001265543
        0.000000000055036
        0.000000000000000
        0.000000000000000
        0.000000000000000
        0.000000000000000
        0.000000000000000
        0.000000000000000
        0.000000000000000
        0.000000000000000
        0.000000000000000
        0.000000000000000
        0.000000000000000
        0.000000000000000
        0.000000000000000
        0.000000000000000
        0.000000002556256
        0.000000002617734
       -0.000000003835952
       -0.000000004163239
        0.000000000000000
        0.000000000000000
        0.000000000000000
        0.000000000000000
        0.000000001958426
       -0.000000018922902
       -0.000000032141433
        0.000000036596000
        0.000000005503304
       -0.000000008716813
        0.000000000000000
        0.000000000000000
        0.000000000000000
        0.000000013600404
       -0.000000337544226
       -0.000000590172836
        0.000000592687577
        0.000000384265275
       -0.000000004463287
       -0.000000001583604
        0.000000000000000
        0.000000000000000
        0.000000012835732
       -0.000000228531194
       -0.000001434007996
       -0.000000001904119
        0.000001438859536
        0.000000231140514
       -0.000000012937394
        0.000000000000000
        0.000000000000000
        0.000000001552933
        0.000000004703654
       -0.000000381694639
       -0.000000593789110
        0.000000588858208
        0.000000340320676
       -0.000000013652418
        0.000000000000000
        0.000000000000000
        0.000000000000000
        0.000000008671846
       -0.000000005313485
       -0.000000036703908
        0.000000031801753
        0.000000019125002
       -0.000000001970228
        0.000000000000000
        0.000000000000000
        0.000000000000000
        0.000000000000000
        0.000000004153882
        0.000000003835976
       -0.000000002620260
       -0.000000002562791
        0.000000000000000
        0.000000000000000
        0.000000000000000
        0.000000000000000
        0.000000000000000
        0.000000000000000
        0.000000000000000
        0.000000000000000
        0.000000000000000
        0.000000000000000
        0.000000000000000
        0.000000000000000
        0.000000000000000
        0.000000000000000
        0.000000000000000
        0.000000000000000
        0.000000000000000
        0.000000000000000
        0.000000000000000
        0.000000000000000
        0.000000000000000
        0.000000000000000
        0.000000000000000
        0.000000001741477
       -0.000000001923847
        0.000000000000000
        0.000000000000000
        0.000000000000000
        0.000000000000000
        0.000000000000000
        0.000000000000000
        0.000000004359517
        0.000000001258404
       -0.000000002517988
       -0.000000005994064
        0.000000000000000
        0.000000000000000
        0.000000000000000
        0.000000000000000
        0.000000000017156
        0.000000010806779
        0.000000025374635
       -0.000000028730946
       -0.000000013287184
       -0.000000005151471
        0.000000000000000
        0.000000000000000
        0.000000000000000
       -0.000000000152733
        0.000000009565593
        0.000000049892805
        0.000000000070241
       -0.000000049976938
       -0.000000009638903
        0.000000000148446
        0.000000000000000
        0.000000000000000
        0.000000000000000
        0.000000005117182
        0.000000013251554
        0.000000028765113
       -0.000000025385213
       -0.000000010871741
       -0.000000000022615
        0.000000000000000
        0.000000000000000
        0.000000000000000
        0.000000000000000
        0.000000005971806
        0.000000002522189
       -0.000000001259299
       -0.000000004376794
        0.000000000000000
        0.000000000000000
        0.000000000000000
        0.000000000000000
        0.000000000000000
        0.000000000000000
        0.000000001925037
       -0.000000001740915
        0.000000000000000
        0.000000000000000
        0.000000000000000
        0.000000000000000
        0.000000000000000
        0.000000000000000
        0.000000000000000
        0.000000000000000
        0.000000000000000
        0.000000000000000
        0.000000000000000
        0.000000000000000
        0.000000000000000
        0.000000000000000
        0.000000000000000
        0.000000000000000
        0.000000000000000
        0.000000000000000
        0.000000000000000
        0.000000000000000
        0.000000000000000
        0.000000000000000
        0.000000000000000
        0.000000000000000
        0.000000000000000
        0.000000000000000
        0.000000000000000
        0.000000000000000
        0.000000000000000
        0.000000000000000
        0.000000000000000
        0.000000000000000
        0.000000000000000
        0.000000000000000
        0.000000000000000
        0.000000000000000
        0.000000000000000
        0.000000000000000
        0.000000000000000
        0.000000000000000
        0.000000000000000
        0.000000000000000
        0.000000002235389
       -0.000000003461847
        0.000000000000000
        0.000000000000000
        0.000000000000000
        0.000000000000000
        0.000000000000000
        0.000000000000000
        0.000000000000000
        0.000000002823040
        0.000000000005687
       -0.000000002824383
        0.000000000000000
        0.000000000000000
        0.000000000000000
        0.000000000000000
        0.000000000000000
        0.000000000000000
        0.000000000000000
        0.000000003469512
       -0.000000002229809
        0.000000000000000
        0.000000000000000
        0.000000000000000
        0.000000000000000
        0.000000000000000
        0.000000000000000
        0.000000000000000
        0.000000000000000
        0.000000000000000
        0.000000000000000
        0.000000000000000
        0.000000000000000
        0.000000000000000
        0.000000000000000
        0.000000000000000
        0.000000000000000
        0.000000000000000
        0.000000000000000
        0.000000000000000
        0.000000000000000
        0.000000000000000
        0.000000000000000
        0.000000000000000
        0.000000000000000
        0.000000000000000
        0.000000000000000
        0.000000000000000
        0.000000000000000
        0.000000000000000
        0.000000000000000
END_DATAGRID_3D
END_BLOCK_DATAGRID_3D
