ATOMS
         C    7.558905    7.558905    7.558905
         H    8.755769    8.755769    8.755769
         H    6.362040    6.362040    8.755769
         H    8.755769    6.362040    6.362040
         H    6.362040    8.755769    6.362040
BEGIN_BLOCK_DATAGRID_3D
units: coords = b, function = sqrt(b^-3)
BEGIN_DATAGRID_3D_function
      9      9      9
0.0 0.0 0.0
   15.117809    0.000000    0.000000
    0.000000   15.117809    0.000000
    0.000000    0.000000   15.117809
        0.000000000000000
        0.000000000000000
        0.000000000000000
        0.000000000000000
        0.000000000000000
        0.000000000000000
        0.000000000000000
        0.000000000000000
        0.000000000000000
        0.000000000000000
        0.000000000000000
        0.000000000000000
        0.000000000000000
        0.000000000000000
        0.000000000000000
        0.000000000000000
        0.000000000000000
        0.000000000000000
        0.000000000000000
        0.000000000000000
        0.000000000000000
        0.000000000000000
        0.000000000000000
        0.000000000000000
        0.000000000000000
        0.000000000000000
        0.000000000000000
        0.000000000000000
        0.000000000000000
        0.000000000000000
        0.000000000000000
       -0.000079609414547
        0.000030044101837
        0.000000000000000
        0.000000000000000
        0.000000000000000
        0.000000000000000
        0.000000000000000
        0.000000000000000
       -0.000174256558400
       -0.000073635443980
        0.000077418614742
        0.000000000000000
        0.000000000000000
        0.000000000000000
        0.000000000000000
        0.000000000000000
        0.000000000000000
       -0.000113203628967
       -0.000019487055493
        0.000000000000000
        0.000000000000000
        0.000000000000000
        0.000000000000000
        0.000000000000000
        0.000000000000000
        0.000000000000000
        0.000000000000000
        0.000000000000000
        0.000000000000000
        0.000000000000000
        0.000000000000000
        0.000000000000000
        0.000000000000000
        0.000000000000000
        0.000000000000000
        0.000000000000000
        0.000000000000000
        0.000000000000000
        0.000000000000000
        0.000000000000000
        0.000000000000000
        0.000000000000000
        0.000000000000000
        0.000000000000000
        0.000000000000000
        0.000000000000000
        0.000000000000000
        0.000000000000000
        0.000000000000000
        0.000000000000000
        0.000000000000000
        0.000000000000000
        0.000000000000000
        0.000000000000000
        0.000000000000000
        0.000000000000000
        0.000000000000000
        0.000000000000000
        0.000000000000000
        0.000000000000000
        0.000000000000000
        0.000000000000000
        0.000000000000000
       -0.000171595673475
       -0.000059147819254
        0.000000000000000
        0.000000000000000
        0.000000000000000
        0.000000000000000
        0.000000000000000
        0.000000000000000
       -0.000615517416919
       -0.000518729730220
       -0.000008309717090
        0.000174249112581
        0.000000000000000
        0.000000000000000
        0.000000000000000
        0.000000000000000
       -0.000804789078307
       -0.001317188405053
       -0.000742404062916
        0.000353859998684
        0.000574242138040
        0.000261866259273
        0.000000000000000
        0.000000000000000
       -0.000389464043838
       -0.001122239215957
       -0.001490320360344
       -0.000428954328447
        0.000884476032159
        0.000896457587546
        0.000344880897813
        0.000000000000000
        0.000000000000000
       -0.000306895447601
       -0.000780697275109
       -0.000853356621697
        0.000114301970742
        0.000923105735242
        0.000675764222240
        0.000000000000000
        0.000000000000000
        0.000000000000000
        0.000000000000000
       -0.000273746927038
       -0.000221855609337
        0.000254944429121
        0.000468926729713
        0.000000000000000
        0.000000000000000
        0.000000000000000
        0.000000000000000
        0.000000000000000
        0.000000000000000
       -0.000002402369073
        0.000106190049716
        0.000000000000000
        0.000000000000000
        0.000000000000000
        0.000000000000000
        0.000000000000000
        0.000000000000000
        0.000000000000000
        0.000000000000000
        0.000000000000000
        0.000000000000000
        0.000000000000000
        0.000000000000000
        0.000000000000000
        0.000000000000000
        0.000000000000000
        0.000000000000000
        0.000000000000000
        0.000000000000000
        0.000000000000000
        0.000000000000000
        0.000000000000000
        0.000000000000000
        0.000000000000000
        0.000000000000000
        0.000000000000000
       -0.000817454951019
       -0.000810320618605
       -0.000227029609539
        0.000081248445208
        0.000000000000000
        0.000000000000000
        0.000000000000000
        0.000000000000000
       -0.001637988812398
       -0.003125569866490
       -0.002510309809947
        0.000036883313125
        0.000769050056991
        0.000373727193028
        0.000000000000000
        0.000000000000000
       -0.001156456319158
       -0.003946669758572
       -0.006824381309658
       -0.004272135075223
        0.002491603055473
        0.002691427932495
        0.001048925849858
        0.000000000000000
        0.000000000000000
       -0.001625809985641
       -0.005167442608385
       -0.008612300864960
       -0.001968760558016
        0.006271819473261
        0.004526167007105
        0.001536590946950
        0.000000000000000
        0.000000000000000
       -0.001155340682441
       -0.003315552442412
       -0.004409585024030
        0.001793542086479
        0.005535737296862
        0.003616733294951
        0.001123528839930
        0.000000000000000
        0.000000000000000
       -0.000432094819763
       -0.001065567539761
       -0.000768904347133
        0.001683907831089
        0.002707061439101
        0.001545736998345
        0.000000000000000
        0.000000000000000
        0.000000000000000
        0.000000000000000
       -0.000158014567463
        0.000055296279313
        0.000631621416475
        0.000734481725476
        0.000000000000000
        0.000000000000000
        0.000000000000000
        0.000000000000000
        0.000000000000000
        0.000000000000000
        0.000000000000000
        0.000000000000000
        0.000000000000000
        0.000000000000000
        0.000000000000000
        0.000000000000000
        0.000000000000000
        0.000000000000000
        0.000000000000000
        0.000000000000000
       -0.000333544533488
       -0.000171552896550
        0.000000000000000
        0.000000000000000
        0.000000000000000
        0.000000000000000
        0.000000000000000
       -0.001244064819021
       -0.002362068156551
       -0.002156330721132
       -0.000654256208619
        0.000165966914552
        0.000158171274624
        0.000000000000000
        0.000000000000000
       -0.001393417125319
       -0.004990381615041
       -0.009581626755547
       -0.008297118811054
       -0.000024965556204
        0.001837208542383
        0.000859697020385
        0.000000000000000
        0.000000000000000
       -0.003152543018796
       -0.011714507839467
       -0.025250348131059
       -0.018737833289168
        0.010500482335663
        0.007863888656470
        0.002525760575321
        0.000467306034318
       -0.000613325060395
       -0.003952121758598
       -0.015702203522415
       -0.035697163689428
       -0.005242077991183
        0.030801065035877
        0.014966376003019
        0.003967724812999
        0.000633427277966
       -0.000459471318253
       -0.002596223031491
       -0.008809167470046
       -0.014897444251449
        0.013248128928335
        0.023363250431481
        0.011565865253259
        0.003226083972833
        0.000000000000000
        0.000000000000000
       -0.000924354273719
       -0.002253736113234
       -0.001221762159600
        0.006990614510717
        0.009164812141927
        0.005017153786501
        0.001447173776262
        0.000000000000000
        0.000000000000000
       -0.000180314337658
       -0.000272976558837
        0.000423956626710
        0.001940221283662
        0.002298367787350
        0.001264485737628
        0.000000000000000
        0.000000000000000
        0.000000000000000
        0.000000000000000
        0.000000000000000
        0.000142593552156
        0.000307921510308
        0.000000000000000
        0.000000000000000
        0.000000000000000
        0.000000000000000
        0.000000000000000
        0.000000000000000
        0.000000000000000
       -0.000542768515363
       -0.000577384709229
       -0.000229318909720
        0.000000000000000
        0.000000000000000
        0.000000000000000
        0.000000000000000
       -0.000662693092232
       -0.002160353893281
       -0.003816468918198
       -0.003352285728727
       -0.001069217649686
        0.000140545666140
        0.000177144365829
        0.000000000000000
        0.000000000000000
       -0.002370545424506
       -0.008484304769983
       -0.017969985522179
       -0.015355744140153
       -0.001199741221874
        0.002245358187086
        0.001073683875001
        0.000000000000000
       -0.000727240699345
       -0.004858972062434
       -0.021021445685541
       -0.056703916145878
       -0.040756361701387
        0.014800601799989
        0.011525819378170
        0.003431606947288
        0.000581446366951
       -0.000952172066895
       -0.005563627151519
       -0.025796107559363
       -0.069102782173887
       -0.000236181297501
        0.070166160209359
        0.026702967498922
        0.005900740966928
        0.001023291103931
       -0.000550524570196
       -0.003298759923079
       -0.011427226021507
       -0.015403054852505
        0.040604800271969
        0.058407486861773
        0.022099786161639
        0.005210116850260
        0.000791140772666
        0.000000000000000
       -0.001060844061155
       -0.002333468639678
        0.000851956359620
        0.015314256015296
        0.018584823235292
        0.008977167265274
        0.002554390315152
        0.000000000000000
        0.000000000000000
       -0.000184630439743
       -0.000182404567474
        0.000984293476900
        0.003345572724554
        0.003945933503046
        0.002288656174883
        0.000718045299770
        0.000000000000000
        0.000000000000000
        0.000000000000000
        0.000000000000000
        0.000214898391556
        0.000576847003751
        0.000561716277078
        0.000000000000000
        0.000000000000000
        0.000000000000000
        0.000000000000000
        0.000000000000000
        0.000000000000000
       -0.000486362223554
       -0.000441290959632
        0.000000000000000
        0.000000000000000
        0.000000000000000
        0.000000000000000
        0.000000000000000
       -0.000613416891866
       -0.001940777666326
       -0.003315205569694
       -0.002755875154158
       -0.000871456782637
        0.000046971041040
        0.000000000000000
        0.000000000000000
        0.000000000000000
       -0.002093479612623
       -0.007426248709216
       -0.015286237473284
       -0.011031374790941
       -0.001297188650453
        0.001416996790680
        0.000698545039313
        0.000000000000000
       -0.000629838268555
       -0.004038079906973
       -0.017139974192905
       -0.045813152195159
       -0.023804423650934
        0.007562645067499
        0.007504866068093
        0.002483500341640
        0.000000000000000
       -0.000664440209146
       -0.004205610226916
       -0.016746468184633
       -0.036409807308955
        0.005090516561765
        0.042407023625885
        0.018659229536790
        0.004673998984548
        0.000739159861651
        0.000000000000000
       -0.002245841401484
       -0.006672186487993
       -0.005222920287683
        0.029104040074325
        0.051154940137199
        0.019023420794919
        0.004502543241260
        0.000703293905039
        0.000000000000000
       -0.000637324973409
       -0.001213409936079
        0.001828148774796
        0.012281451232352
        0.016800993994440
        0.008205550639243
        0.002331766500713
        0.000000000000000
        0.000000000000000
        0.000000000000000
       -0.000022497168893
        0.000955700598675
        0.002962308778964
        0.003592765887498
        0.002130123501168
        0.000680448054351
        0.000000000000000
        0.000000000000000
        0.000000000000000
        0.000000000000000
        0.000000000000000
        0.000465805448581
        0.000520335366379
        0.000000000000000
        0.000000000000000
        0.000000000000000
        0.000000000000000
        0.000000000000000
        0.000000000000000
        0.000000000000000
        0.000000000000000
        0.000000000000000
        0.000000000000000
        0.000000000000000
        0.000000000000000
        0.000000000000000
        0.000000000000000
       -0.000905052158361
       -0.001575716558592
       -0.001253838751733
       -0.000400165530263
        0.000000000000000
        0.000000000000000
        0.000000000000000
        0.000000000000000
       -0.000968436368024
       -0.003280308118678
       -0.005750834500318
       -0.003937402310930
       -0.000546896235107
        0.000500831348906
        0.000000000000000
        0.000000000000000
        0.000000000000000
       -0.001862493203901
       -0.006364432380038
       -0.012098414608854
       -0.005834302366702
        0.002331886194613
        0.002817417282230
        0.001022189975644
        0.000000000000000
        0.000000000000000
       -0.001805579500020
       -0.005650330801276
       -0.008505728297599
        0.001927272433159
        0.011113262540157
        0.006696358445255
        0.002091483243203
        0.000000000000000
        0.000000000000000
       -0.000874285779570
       -0.002257121792549
       -0.000929096671093
        0.008256467496521
        0.014284425382763
        0.007351331249130
        0.002142537671240
        0.000000000000000
        0.000000000000000
        0.000000000000000
       -0.000338279707265
        0.000994658086503
        0.004744322055875
        0.006590932516463
        0.003739966976475
        0.001106344341211
        0.000000000000000
        0.000000000000000
        0.000000000000000
        0.000000000000000
        0.000486163463085
        0.001428538613764
        0.001772756483956
        0.001020101554802
        0.000000000000000
        0.000000000000000
        0.000000000000000
        0.000000000000000
        0.000000000000000
        0.000000000000000
        0.000000000000000
        0.000000000000000
        0.000000000000000
        0.000000000000000
        0.000000000000000
        0.000000000000000
        0.000000000000000
        0.000000000000000
        0.000000000000000
        0.000000000000000
        0.000000000000000
        0.000000000000000
        0.000000000000000
        0.000000000000000
        0.000000000000000
        0.000000000000000
        0.000000000000000
       -0.000415045128940
       -0.000337911218599
        0.000000000000000
        0.000000000000000
        0.000000000000000
        0.000000000000000
        0.000000000000000
        0.000000000000000
       -0.000789319798786
       -0.001298564669942
       -0.000877161764379
       -0.000134610534500
        0.000000000000000
        0.000000000000000
        0.000000000000000
        0.000000000000000
       -0.000486835781923
       -0.001433056950054
       -0.002037892321287
       -0.000929955841238
        0.000503805269472
        0.000635692556428
        0.000000000000000
        0.000000000000000
        0.000000000000000
       -0.000457859488137
       -0.001220519244799
       -0.001341855080955
        0.000422241324274
        0.001992239821200
        0.001532744253476
        0.000550308767786
        0.000000000000000
        0.000000000000000
        0.000000000000000
       -0.000461772909607
       -0.000089179152823
        0.001548382120748
        0.002584649680194
        0.001721848277680
        0.000576753069702
        0.000000000000000
        0.000000000000000
        0.000000000000000
        0.000000000000000
        0.000284225928985
        0.001136947725379
        0.001554036591507
        0.000927100887430
        0.000000000000000
        0.000000000000000
        0.000000000000000
        0.000000000000000
        0.000000000000000
        0.000000000000000
        0.000402410161886
        0.000482933145948
        0.000000000000000
        0.000000000000000
        0.000000000000000
        0.000000000000000
        0.000000000000000
        0.000000000000000
        0.000000000000000
        0.000000000000000
        0.000000000000000
        0.000000000000000
        0.000000000000000
        0.000000000000000
        0.000000000000000
        0.000000000000000
        0.000000000000000
        0.000000000000000
        0.000000000000000
        0.000000000000000
        0.000000000000000
        0.000000000000000
        0.000000000000000
        0.000000000000000
        0.000000000000000
        0.000000000000000
        0.000000000000000
        0.000000000000000
        0.000000000000000
        0.000000000000000
        0.000000000000000
        0.000000000000000
        0.000000000000000
        0.000000000000000
        0.000000000000000
        0.000000000000000
        0.000000000000000
        0.000000000000000
        0.000000000000000
        0.000000000000000
        0.000000000000000
        0.000000000000000
        0.000000000000000
        0.000000000000000
       -0.000230565042431
       -0.000113882393831
        0.000000000000000
        0.000000000000000
        0.000000000000000
        0.000000000000000
        0.000000000000000
        0.000000000000000
        0.000000000000000
       -0.000153613565407
        0.000073097738502
        0.000254978752616
        0.000000000000000
        0.000000000000000
        0.000000000000000
        0.000000000000000
        0.000000000000000
        0.000000000000000
        0.000000000000000
        0.000211870329640
        0.000318738367992
        0.000000000000000
        0.000000000000000
        0.000000000000000
        0.000000000000000
        0.000000000000000
        0.000000000000000
        0.000000000000000
        0.000000000000000
        0.000000000000000
        0.000000000000000
        0.000000000000000
        0.000000000000000
        0.000000000000000
        0.000000000000000
        0.000000000000000
        0.000000000000000
        0.000000000000000
        0.000000000000000
        0.000000000000000
        0.000000000000000
        0.000000000000000
        0.000000000000000
        0.000000000000000
        0.000000000000000
        0.000000000000000
        0.000000000000000
        0.000000000000000
        0.000000000000000
        0.000000000000000
        0.000000000000000
END_DATAGRID_3D
END_BLOCK_DATAGRID_3D
