ATOMS
         C    7.558905    7.558905    7.558905
         H    8.755769    8.755769    8.755769
         H    6.362040    6.362040    8.755769
         H    8.755769    6.362040    6.362040
         H    6.362040    8.755769    6.362040
BEGIN_BLOCK_DATAGRID_3D
units: coords = b, function = sqrt(b^-3)
BEGIN_DATAGRID_3D_function
      9      9      9
0.0 0.0 0.0
   15.117809    0.000000    0.000000
    0.000000   15.117809    0.000000
    0.000000    0.000000   15.117809
        0.000000000000000
        0.000000000000000
        0.000000000000000
        0.000000000000000
        0.000000000000000
        0.000000000000000
        0.000000000000000
        0.000000000000000
        0.000000000000000
        0.000000000000000
        0.000000000000000
        0.000000000000000
        0.000000000000000
        0.000000000000000
        0.000000000000000
        0.000000000000000
        0.000000000000000
        0.000000000000000
        0.000000000000000
        0.000000000000000
        0.000000000000000
        0.000000000000000
        0.000000000000000
        0.000000000000000
        0.000000000000000
        0.000000000000000
        0.000000000000000
        0.000000000000000
        0.000000000000000
        0.000000000000000
        0.000000000000000
       -0.000675034629257
       -0.000658254797438
        0.000000000000000
        0.000000000000000
        0.000000000000000
        0.000000000000000
        0.000000000000000
        0.000000000000000
       -0.000400013060017
       -0.000786623794621
       -0.000657369182905
        0.000000000000000
        0.000000000000000
        0.000000000000000
        0.000000000000000
        0.000000000000000
        0.000000000000000
       -0.000245023364733
       -0.000380355481277
        0.000000000000000
        0.000000000000000
        0.000000000000000
        0.000000000000000
        0.000000000000000
        0.000000000000000
        0.000000000000000
        0.000000000000000
        0.000000000000000
        0.000000000000000
        0.000000000000000
        0.000000000000000
        0.000000000000000
        0.000000000000000
        0.000000000000000
        0.000000000000000
        0.000000000000000
        0.000000000000000
        0.000000000000000
        0.000000000000000
        0.000000000000000
        0.000000000000000
        0.000000000000000
        0.000000000000000
        0.000000000000000
        0.000000000000000
        0.000000000000000
        0.000000000000000
        0.000000000000000
        0.000000000000000
        0.000000000000000
        0.000000000000000
        0.000000000000000
        0.000000000000000
        0.000000000000000
        0.000000000000000
        0.000000000000000
        0.000000000000000
        0.000000000000000
        0.000000000000000
        0.000000000000000
        0.000000000000000
        0.000000000000000
        0.000000000000000
       -0.000707064202098
       -0.000716014500766
        0.000000000000000
        0.000000000000000
        0.000000000000000
        0.000000000000000
        0.000000000000000
        0.000000000000000
       -0.001194210872277
       -0.002387111852788
       -0.002408846118680
       -0.001229130196797
        0.000000000000000
        0.000000000000000
        0.000000000000000
        0.000000000000000
       -0.000633594676620
       -0.002352638694835
       -0.004534569429119
       -0.004467209920071
       -0.002346335210433
       -0.000682482922960
        0.000000000000000
        0.000000000000000
       -0.000059645399024
       -0.000616035124836
       -0.002366777403699
       -0.004563688880297
       -0.004338785017454
       -0.002223693296223
       -0.000650045026486
        0.000000000000000
        0.000000000000000
        0.000013699368015
       -0.000166111716750
       -0.001003626037367
       -0.002152484980165
       -0.002065893256094
       -0.001035746610227
        0.000000000000000
        0.000000000000000
        0.000000000000000
        0.000000000000000
        0.000059019898837
       -0.000084492247376
       -0.000422792083147
       -0.000461287505685
        0.000000000000000
        0.000000000000000
        0.000000000000000
        0.000000000000000
        0.000000000000000
        0.000000000000000
        0.000059553593923
        0.000013063705479
        0.000000000000000
        0.000000000000000
        0.000000000000000
        0.000000000000000
        0.000000000000000
        0.000000000000000
        0.000000000000000
        0.000000000000000
        0.000000000000000
        0.000000000000000
        0.000000000000000
        0.000000000000000
        0.000000000000000
        0.000000000000000
        0.000000000000000
        0.000000000000000
        0.000000000000000
        0.000000000000000
        0.000000000000000
        0.000000000000000
        0.000000000000000
        0.000000000000000
        0.000000000000000
        0.000000000000000
        0.000000000000000
       -0.001156660732956
       -0.002332890736677
       -0.002368175311887
       -0.001211836789544
        0.000000000000000
        0.000000000000000
        0.000000000000000
        0.000000000000000
       -0.001014834581599
       -0.004186858391107
       -0.008776057662970
       -0.009009791457633
       -0.004437034563814
       -0.001180515166383
        0.000000000000000
        0.000000000000000
       -0.000136192810542
       -0.001750883406767
       -0.008279776164255
       -0.020138265352419
       -0.020445776877348
       -0.008707340345157
       -0.002225413649655
        0.000000000000000
        0.000000000000000
        0.000093004855005
       -0.000994507223515
       -0.007620173621563
       -0.020894090079879
       -0.018778468193461
       -0.007907423984750
       -0.002051792238160
        0.000000000000000
        0.000000000000000
        0.000357913918327
        0.000680602745790
       -0.000765141348456
       -0.006156159701362
       -0.006608782363833
       -0.003306708663755
       -0.000910966220571
        0.000000000000000
        0.000000000000000
        0.000278650555442
        0.000813479090055
        0.001066114591346
        0.000005953444641
       -0.000809236424018
       -0.000577204668357
        0.000000000000000
        0.000000000000000
        0.000000000000000
        0.000000000000000
        0.000322307540623
        0.000546019974503
        0.000434136748853
        0.000142842133213
        0.000000000000000
        0.000000000000000
        0.000000000000000
        0.000000000000000
        0.000000000000000
        0.000000000000000
        0.000000000000000
        0.000000000000000
        0.000000000000000
        0.000000000000000
        0.000000000000000
        0.000000000000000
        0.000000000000000
        0.000000000000000
        0.000000000000000
        0.000000000000000
       -0.000627815576409
       -0.000620767980488
        0.000000000000000
        0.000000000000000
        0.000000000000000
        0.000000000000000
        0.000000000000000
       -0.000551911668369
       -0.002158344056064
       -0.004271650783302
       -0.004279751435920
       -0.002270416726078
       -0.000663200915097
        0.000000000000000
        0.000000000000000
       -0.000092130118955
       -0.001556805937238
       -0.007767068355398
       -0.019389822519750
       -0.019977822752823
       -0.008548498863547
       -0.002190226684825
        0.000000000000000
        0.000000000000000
        0.000234916886497
       -0.001422675149599
       -0.015632911812675
       -0.056850970023838
       -0.060706088662579
       -0.019000643452946
       -0.003897160299875
       -0.000543015369731
        0.000217694152319
        0.001086021570846
        0.002254071297738
       -0.008123509955671
       -0.055416512110915
       -0.050061641404874
       -0.016321448493780
       -0.003490100503247
       -0.000506191638259
        0.000239674968429
        0.001422124449736
        0.005312227405923
        0.011366252773375
       -0.000968802046035
       -0.008723213016032
       -0.004850911284038
       -0.001408314657214
        0.000000000000000
        0.000000000000000
        0.000883401060041
        0.003096203000941
        0.006487059915632
        0.005667023959552
        0.001647253902335
       -0.000120794109846
       -0.000174683711726
        0.000000000000000
        0.000000000000000
        0.000301667591023
        0.000988937662385
        0.001902223236159
        0.002001426611673
        0.001062786603769
        0.000303577153879
        0.000000000000000
        0.000000000000000
        0.000000000000000
        0.000000000000000
        0.000000000000000
        0.000336907538954
        0.000364489171566
        0.000000000000000
        0.000000000000000
        0.000000000000000
        0.000000000000000
        0.000000000000000
        0.000000000000000
        0.000000000000000
       -0.000331488526492
       -0.000692951980824
       -0.000600331560702
        0.000000000000000
        0.000000000000000
        0.000000000000000
        0.000000000000000
       -0.000008838653863
       -0.000422998446746
       -0.001934231751315
       -0.004020097507597
       -0.003975497081557
       -0.002083132017759
       -0.000618854538926
        0.000000000000000
        0.000000000000000
        0.000231487874574
       -0.000377739088603
       -0.005880118885509
       -0.018404790104847
       -0.017389136852481
       -0.007483309224028
       -0.001965715000851
        0.000000000000000
        0.000238876683504
        0.001254649733034
        0.003243180554698
       -0.004217319435267
       -0.048812656581350
       -0.047086366766699
       -0.015681679462333
       -0.003390409771459
       -0.000496525825217
        0.000446694004745
        0.002610073304634
        0.012101769200293
        0.032418298731390
        0.000110800109869
       -0.032917162970047
       -0.012527205854264
       -0.002768224048072
       -0.000480058192345
        0.000360563381186
        0.002572400121652
        0.011979516704999
        0.038044978075104
        0.048883758837157
        0.012742139036201
       -0.000093154648837
       -0.000663695936153
       -0.000147398175049
        0.000000000000000
        0.001378285363355
        0.005452698431346
        0.013910727286892
        0.018424253495222
        0.009233245520024
        0.002218467908092
        0.000263670752907
        0.000000000000000
        0.000000000000000
        0.000406344897715
        0.001522060470691
        0.003262894746167
        0.004023246789982
        0.002625938771953
        0.000943516672562
        0.000198892779244
        0.000000000000000
        0.000000000000000
        0.000000000000000
        0.000000000000000
        0.000485302762103
        0.000693204235455
        0.000444393452083
        0.000000000000000
        0.000000000000000
        0.000000000000000
        0.000000000000000
        0.000000000000000
        0.000000000000000
       -0.000175634792282
       -0.000301921348479
        0.000000000000000
        0.000000000000000
        0.000000000000000
        0.000000000000000
        0.000000000000000
        0.000070696810260
        0.000049604398174
       -0.000545846994973
       -0.001618777606766
       -0.001732195645759
       -0.000918822970136
        0.000000000000000
        0.000000000000000
        0.000000000000000
        0.000532360178095
        0.001444983761986
        0.001257364356749
       -0.003771375626079
       -0.005338204695183
       -0.002897669241874
       -0.000831940788309
        0.000000000000000
        0.000271354580384
        0.001690236699378
        0.006861334928165
        0.017115006444445
        0.005921093474082
       -0.005785101805487
       -0.004095771404452
       -0.001270231764735
        0.000000000000000
        0.000381745912371
        0.002741028283840
        0.012968625961959
        0.041951168595507
        0.055487614366721
        0.015717413674376
        0.000546614382610
       -0.000564005204365
       -0.000137732362008
        0.000000000000000
        0.002297635831325
        0.010048454469026
        0.029928884968065
        0.051987854853931
        0.031781581699811
        0.006386956963666
        0.000599960888604
       -0.000006150052199
        0.000000000000000
        0.001044815407911
        0.004467200590603
        0.011404469882224
        0.017520646277992
        0.012107657698275
        0.003837123185241
        0.000693010298415
        0.000000000000000
        0.000000000000000
        0.000000000000000
        0.001146095919630
        0.002818115517981
        0.003893541007866
        0.002901203690110
        0.001193248156746
        0.000269778087920
        0.000000000000000
        0.000000000000000
        0.000000000000000
        0.000000000000000
        0.000000000000000
        0.000565767801759
        0.000457143102538
        0.000000000000000
        0.000000000000000
        0.000000000000000
        0.000000000000000
        0.000000000000000
        0.000000000000000
        0.000000000000000
        0.000000000000000
        0.000000000000000
        0.000000000000000
        0.000000000000000
        0.000000000000000
        0.000000000000000
        0.000000000000000
        0.000176410652843
        0.000167257223033
       -0.000142234935124
       -0.000299680424613
        0.000000000000000
        0.000000000000000
        0.000000000000000
        0.000000000000000
        0.000378382880839
        0.001225308508832
        0.001992500922505
        0.001051232025160
       -0.000204165333323
       -0.000382905213883
        0.000000000000000
        0.000000000000000
        0.000000000000000
        0.001057847319809
        0.003860584017138
        0.008509565620837
        0.008051808034835
        0.002917831570985
        0.000288245312034
       -0.000095658279464
        0.000000000000000
        0.000000000000000
        0.001516768382923
        0.006069466566258
        0.015650782022945
        0.020913553470254
        0.010622576861004
        0.002642582668814
        0.000349747990216
        0.000000000000000
        0.000000000000000
        0.001088878099498
        0.004661278060132
        0.011917177691082
        0.018269089110661
        0.012575611822800
        0.003995964666851
        0.000728197263245
        0.000000000000000
        0.000000000000000
        0.000000000000000
        0.001941964593277
        0.005186536442853
        0.007728011924728
        0.005900473616283
        0.002321712190715
        0.000486166840146
        0.000000000000000
        0.000000000000000
        0.000000000000000
        0.000000000000000
        0.001312080038592
        0.002042865139766
        0.001643025990896
        0.000695158702426
        0.000000000000000
        0.000000000000000
        0.000000000000000
        0.000000000000000
        0.000000000000000
        0.000000000000000
        0.000000000000000
        0.000000000000000
        0.000000000000000
        0.000000000000000
        0.000000000000000
        0.000000000000000
        0.000000000000000
        0.000000000000000
        0.000000000000000
        0.000000000000000
        0.000000000000000
        0.000000000000000
        0.000000000000000
        0.000000000000000
        0.000000000000000
        0.000000000000000
        0.000000000000000
        0.000136284218528
        0.000095644017118
        0.000000000000000
        0.000000000000000
        0.000000000000000
        0.000000000000000
        0.000000000000000
        0.000000000000000
        0.000439698294628
        0.000797769444912
        0.000714693896875
        0.000304449214284
        0.000000000000000
        0.000000000000000
        0.000000000000000
        0.000000000000000
        0.000358665033268
        0.001204653777309
        0.002360002278553
        0.002535133985072
        0.001396484214103
        0.000420500793970
        0.000000000000000
        0.000000000000000
        0.000000000000000
        0.000457151642877
        0.001715097148781
        0.003695440398551
        0.004566838162682
        0.002989226707850
        0.001084077951026
        0.000230083266804
        0.000000000000000
        0.000000000000000
        0.000000000000000
        0.001227778927880
        0.003012410156751
        0.004156459653683
        0.003088662174262
        0.001269166641101
        0.000289060095783
        0.000000000000000
        0.000000000000000
        0.000000000000000
        0.000000000000000
        0.001349630177913
        0.002097086255877
        0.001683696797689
        0.000712452109678
        0.000000000000000
        0.000000000000000
        0.000000000000000
        0.000000000000000
        0.000000000000000
        0.000000000000000
        0.000598781831961
        0.000517203412608
        0.000000000000000
        0.000000000000000
        0.000000000000000
        0.000000000000000
        0.000000000000000
        0.000000000000000
        0.000000000000000
        0.000000000000000
        0.000000000000000
        0.000000000000000
        0.000000000000000
        0.000000000000000
        0.000000000000000
        0.000000000000000
        0.000000000000000
        0.000000000000000
        0.000000000000000
        0.000000000000000
        0.000000000000000
        0.000000000000000
        0.000000000000000
        0.000000000000000
        0.000000000000000
        0.000000000000000
        0.000000000000000
        0.000000000000000
        0.000000000000000
        0.000000000000000
        0.000000000000000
        0.000000000000000
        0.000000000000000
        0.000000000000000
        0.000000000000000
        0.000000000000000
        0.000000000000000
        0.000000000000000
        0.000000000000000
        0.000000000000000
        0.000000000000000
        0.000000000000000
        0.000000000000000
        0.000000000000000
        0.000406296111405
        0.000442923304363
        0.000000000000000
        0.000000000000000
        0.000000000000000
        0.000000000000000
        0.000000000000000
        0.000000000000000
        0.000000000000000
        0.000553827295628
        0.000786876049252
        0.000501431074285
        0.000000000000000
        0.000000000000000
        0.000000000000000
        0.000000000000000
        0.000000000000000
        0.000000000000000
        0.000000000000000
        0.000612986854607
        0.000494629919488
        0.000000000000000
        0.000000000000000
        0.000000000000000
        0.000000000000000
        0.000000000000000
        0.000000000000000
        0.000000000000000
        0.000000000000000
        0.000000000000000
        0.000000000000000
        0.000000000000000
        0.000000000000000
        0.000000000000000
        0.000000000000000
        0.000000000000000
        0.000000000000000
        0.000000000000000
        0.000000000000000
        0.000000000000000
        0.000000000000000
        0.000000000000000
        0.000000000000000
        0.000000000000000
        0.000000000000000
        0.000000000000000
        0.000000000000000
        0.000000000000000
        0.000000000000000
        0.000000000000000
        0.000000000000000
END_DATAGRID_3D
END_BLOCK_DATAGRID_3D
