ATOMS
         C    7.558905    7.558905    7.558905
         H    8.755769    8.755769    8.755769
         H    6.362040    6.362040    8.755769
         H    8.755769    6.362040    6.362040
         H    6.362040    8.755769    6.362040
BEGIN_BLOCK_DATAGRID_3D
units: coords = b, function = 1/hbar/H*b^-2
BEGIN_DATAGRID_3D_function
      9      9      9
0.0 0.0 0.0
   15.117809    0.000000    0.000000
    0.000000   15.117809    0.000000
    0.000000    0.000000   15.117809
        0.000000000000000
        0.000000000000000
        0.000000000000000
        0.000000000000000
        0.000000000000000
        0.000000000000000
        0.000000000000000
        0.000000000000000
        0.000000000000000
        0.000000000000000
        0.000000000000000
        0.000000000000000
        0.000000000000000
        0.000000000000000
        0.000000000000000
        0.000000000000000
        0.000000000000000
        0.000000000000000
        0.000000000000000
        0.000000000000000
        0.000000000000000
        0.000000000000000
        0.000000000000000
        0.000000000000000
        0.000000000000000
        0.000000000000000
        0.000000000000000
        0.000000000000000
        0.000000000000000
        0.000000000000000
        0.000000000000000
       -0.000000000201872
        0.000000000009757
        0.000000000000000
        0.000000000000000
        0.000000000000000
        0.000000000000000
        0.000000000000000
        0.000000000000000
        0.000000000009225
       -0.000000000598015
        0.000000000009757
        0.000000000000000
        0.000000000000000
        0.000000000000000
        0.000000000000000
        0.000000000000000
        0.000000000000000
        0.000000000009225
       -0.000000000201981
        0.000000000000000
        0.000000000000000
        0.000000000000000
        0.000000000000000
        0.000000000000000
        0.000000000000000
        0.000000000000000
        0.000000000000000
        0.000000000000000
        0.000000000000000
        0.000000000000000
        0.000000000000000
        0.000000000000000
        0.000000000000000
        0.000000000000000
        0.000000000000000
        0.000000000000000
        0.000000000000000
        0.000000000000000
        0.000000000000000
        0.000000000000000
        0.000000000000000
        0.000000000000000
        0.000000000000000
        0.000000000000000
        0.000000000000000
        0.000000000000000
        0.000000000000000
        0.000000000000000
        0.000000000000000
        0.000000000000000
        0.000000000000000
        0.000000000000000
        0.000000000000000
        0.000000000000000
        0.000000000000000
        0.000000000000000
        0.000000000000000
        0.000000000000000
        0.000000000000000
        0.000000000000000
        0.000000000000000
        0.000000000000000
        0.000000000000000
       -0.000000000364093
        0.000000000337553
        0.000000000000000
        0.000000000000000
        0.000000000000000
        0.000000000000000
        0.000000000000000
        0.000000000000000
       -0.000000000680385
       -0.000000000456148
        0.000000000344567
        0.000000000390686
        0.000000000000000
        0.000000000000000
        0.000000000000000
        0.000000000000000
       -0.000000000436315
       -0.000000001015502
        0.000000000431073
       -0.000000000453878
        0.000000000564773
        0.000000000000194
        0.000000000000000
        0.000000000000000
        0.000000000000681
       -0.000000000754471
        0.000000000396146
       -0.000000000325692
        0.000000000406455
       -0.000000000749022
        0.000000000000194
        0.000000000000000
        0.000000000000000
        0.000000000000681
        0.000000000562883
       -0.000000000467003
        0.000000000413808
       -0.000000001013256
       -0.000000000435035
        0.000000000000000
        0.000000000000000
        0.000000000000000
        0.000000000000000
        0.000000000391604
        0.000000000343000
       -0.000000000460909
       -0.000000000677953
        0.000000000000000
        0.000000000000000
        0.000000000000000
        0.000000000000000
        0.000000000000000
        0.000000000000000
        0.000000000336530
       -0.000000000366894
        0.000000000000000
        0.000000000000000
        0.000000000000000
        0.000000000000000
        0.000000000000000
        0.000000000000000
        0.000000000000000
        0.000000000000000
        0.000000000000000
        0.000000000000000
        0.000000000000000
        0.000000000000000
        0.000000000000000
        0.000000000000000
        0.000000000000000
        0.000000000000000
        0.000000000000000
        0.000000000000000
        0.000000000000000
        0.000000000000000
        0.000000000000000
        0.000000000000000
        0.000000000000000
        0.000000000000000
        0.000000000000000
       -0.000000000976480
        0.000000000055924
       -0.000000000093050
        0.000000000655932
        0.000000000000000
        0.000000000000000
        0.000000000000000
        0.000000000000000
       -0.000000001322360
        0.000000000241643
        0.000000002800525
       -0.000000003845639
       -0.000000001144242
        0.000000000213739
        0.000000000000000
        0.000000000000000
       -0.000000000191739
       -0.000000000702381
        0.000000010180622
       -0.000000006023707
       -0.000000019170877
       -0.000000002402370
        0.000000000185374
        0.000000000000000
        0.000000000000000
       -0.000000000439054
        0.000000003122294
       -0.000000007027709
       -0.000000018603653
       -0.000000007134667
        0.000000003166046
       -0.000000000437221
        0.000000000000000
        0.000000000000000
        0.000000000181104
       -0.000000002429026
       -0.000000019164560
       -0.000000006103723
        0.000000010199574
       -0.000000000683838
       -0.000000000192247
        0.000000000000000
        0.000000000000000
        0.000000000212650
       -0.000000001135454
       -0.000000003932795
        0.000000002780281
        0.000000000259477
       -0.000000001315758
        0.000000000000000
        0.000000000000000
        0.000000000000000
        0.000000000000000
        0.000000000655101
       -0.000000000096850
        0.000000000052191
       -0.000000000975080
        0.000000000000000
        0.000000000000000
        0.000000000000000
        0.000000000000000
        0.000000000000000
        0.000000000000000
        0.000000000000000
        0.000000000000000
        0.000000000000000
        0.000000000000000
        0.000000000000000
        0.000000000000000
        0.000000000000000
        0.000000000000000
        0.000000000000000
        0.000000000000000
       -0.000000000512854
        0.000000000346296
        0.000000000000000
        0.000000000000000
        0.000000000000000
        0.000000000000000
        0.000000000000000
       -0.000000000628500
       -0.000000001995788
       -0.000000005048020
        0.000000003167237
        0.000000002459552
       -0.000000000151794
        0.000000000000000
        0.000000000000000
        0.000000000084317
       -0.000000002960814
        0.000000046904928
        0.000000084077210
       -0.000000062341893
       -0.000000050432690
        0.000000003031290
        0.000000000000000
        0.000000000000000
       -0.000000003143401
        0.000000042339159
        0.000000144943310
       -0.000000238244730
       -0.000000455849768
       -0.000000032854654
        0.000000002254940
        0.000000000004160
        0.000000000003731
       -0.000000005590510
        0.000000083127753
       -0.000000242163401
       -0.000000588409926
       -0.000000244933266
        0.000000083429357
       -0.000000005597191
        0.000000000004160
        0.000000000003731
        0.000000002227024
       -0.000000032843895
       -0.000000453221314
       -0.000000237624084
        0.000000145481773
        0.000000042492720
       -0.000000003158068
        0.000000000000000
        0.000000000000000
        0.000000003014080
       -0.000000050324949
       -0.000000062985136
        0.000000084221001
        0.000000047063724
       -0.000000002959389
        0.000000000084446
        0.000000000000000
        0.000000000000000
       -0.000000000152992
        0.000000002450418
        0.000000003167146
       -0.000000005064849
       -0.000000001999860
       -0.000000000627447
        0.000000000000000
        0.000000000000000
        0.000000000000000
        0.000000000000000
        0.000000000000000
        0.000000000348092
       -0.000000000509980
        0.000000000000000
        0.000000000000000
        0.000000000000000
        0.000000000000000
        0.000000000000000
        0.000000000000000
        0.000000000000000
       -0.000000000257992
       -0.000000000001657
        0.000000000255265
        0.000000000000000
        0.000000000000000
        0.000000000000000
        0.000000000000000
        0.000000000086517
       -0.000000001057724
       -0.000000009421292
        0.000000000018132
        0.000000009449078
        0.000000001063551
       -0.000000000083303
        0.000000000000000
        0.000000000000000
       -0.000000001571343
        0.000000021920222
        0.000000197759376
       -0.000000000542531
       -0.000000198289753
       -0.000000021983048
        0.000000001586587
        0.000000000000000
       -0.000000000015661
       -0.000000008754740
        0.000000167325860
        0.000000680623660
        0.000000001078705
       -0.000000684425161
       -0.000000167896287
        0.000000008820038
        0.000000000016423
        0.000000000000000
        0.000000000000000
       -0.000000000000000
        0.000000000000000
       -0.000000000000000
       -0.000000000000000
        0.000000000000000
        0.000000000000000
        0.000000000000000
        0.000000000015661
        0.000000008754740
       -0.000000167325860
       -0.000000680623660
       -0.000000001078705
        0.000000684425161
        0.000000167896287
       -0.000000008820038
       -0.000000000016423
        0.000000000000000
        0.000000001571343
       -0.000000021920222
       -0.000000197759376
        0.000000000542531
        0.000000198289753
        0.000000021983048
       -0.000000001586587
        0.000000000000000
        0.000000000000000
       -0.000000000086517
        0.000000001057724
        0.000000009421292
       -0.000000000018132
       -0.000000009449078
       -0.000000001063551
        0.000000000083303
        0.000000000000000
        0.000000000000000
        0.000000000000000
        0.000000000000000
        0.000000000257992
        0.000000000001657
       -0.000000000255265
        0.000000000000000
        0.000000000000000
        0.000000000000000
        0.000000000000000
        0.000000000000000
        0.000000000000000
       -0.000000000348092
        0.000000000509980
        0.000000000000000
        0.000000000000000
        0.000000000000000
        0.000000000000000
        0.000000000000000
        0.000000000152992
       -0.000000002450418
       -0.000000003167146
        0.000000005064849
        0.000000001999860
        0.000000000627447
        0.000000000000000
        0.000000000000000
        0.000000000000000
       -0.000000003014080
        0.000000050324949
        0.000000062985136
       -0.000000084221001
       -0.000000047063724
        0.000000002959389
       -0.000000000084446
        0.000000000000000
       -0.000000000003731
       -0.000000002227024
        0.000000032843895
        0.000000453221314
        0.000000237624084
       -0.000000145481773
       -0.000000042492720
        0.000000003158068
        0.000000000000000
       -0.000000000003731
        0.000000005590510
       -0.000000083127753
        0.000000242163401
        0.000000588409926
        0.000000244933266
       -0.000000083429357
        0.000000005597191
       -0.000000000004160
        0.000000000000000
        0.000000003143401
       -0.000000042339159
       -0.000000144943310
        0.000000238244730
        0.000000455849768
        0.000000032854654
       -0.000000002254940
       -0.000000000004160
        0.000000000000000
       -0.000000000084317
        0.000000002960814
       -0.000000046904928
       -0.000000084077210
        0.000000062341893
        0.000000050432690
       -0.000000003031290
        0.000000000000000
        0.000000000000000
        0.000000000000000
        0.000000000628500
        0.000000001995788
        0.000000005048020
       -0.000000003167237
       -0.000000002459552
        0.000000000151794
        0.000000000000000
        0.000000000000000
        0.000000000000000
        0.000000000000000
        0.000000000000000
        0.000000000512854
       -0.000000000346296
        0.000000000000000
        0.000000000000000
        0.000000000000000
        0.000000000000000
        0.000000000000000
        0.000000000000000
        0.000000000000000
        0.000000000000000
        0.000000000000000
        0.000000000000000
        0.000000000000000
        0.000000000000000
        0.000000000000000
        0.000000000000000
       -0.000000000655101
        0.000000000096850
       -0.000000000052191
        0.000000000975080
        0.000000000000000
        0.000000000000000
        0.000000000000000
        0.000000000000000
       -0.000000000212650
        0.000000001135454
        0.000000003932795
       -0.000000002780281
       -0.000000000259477
        0.000000001315758
        0.000000000000000
        0.000000000000000
        0.000000000000000
       -0.000000000181104
        0.000000002429026
        0.000000019164560
        0.000000006103723
       -0.000000010199574
        0.000000000683838
        0.000000000192247
        0.000000000000000
        0.000000000000000
        0.000000000439054
       -0.000000003122294
        0.000000007027709
        0.000000018603653
        0.000000007134667
       -0.000000003166046
        0.000000000437221
        0.000000000000000
        0.000000000000000
        0.000000000191739
        0.000000000702381
       -0.000000010180622
        0.000000006023707
        0.000000019170877
        0.000000002402370
       -0.000000000185374
        0.000000000000000
        0.000000000000000
        0.000000000000000
        0.000000001322360
       -0.000000000241643
       -0.000000002800525
        0.000000003845639
        0.000000001144242
       -0.000000000213739
        0.000000000000000
        0.000000000000000
        0.000000000000000
        0.000000000000000
        0.000000000976480
       -0.000000000055924
        0.000000000093050
       -0.000000000655932
        0.000000000000000
        0.000000000000000
        0.000000000000000
        0.000000000000000
        0.000000000000000
        0.000000000000000
        0.000000000000000
        0.000000000000000
        0.000000000000000
        0.000000000000000
        0.000000000000000
        0.000000000000000
        0.000000000000000
        0.000000000000000
        0.000000000000000
        0.000000000000000
        0.000000000000000
        0.000000000000000
        0.000000000000000
        0.000000000000000
        0.000000000000000
        0.000000000000000
        0.000000000000000
       -0.000000000336530
        0.000000000366894
        0.000000000000000
        0.000000000000000
        0.000000000000000
        0.000000000000000
        0.000000000000000
        0.000000000000000
       -0.000000000391604
       -0.000000000343000
        0.000000000460909
        0.000000000677953
        0.000000000000000
        0.000000000000000
        0.000000000000000
        0.000000000000000
       -0.000000000000681
       -0.000000000562883
        0.000000000467003
       -0.000000000413808
        0.000000001013256
        0.000000000435035
        0.000000000000000
        0.000000000000000
        0.000000000000000
       -0.000000000000681
        0.000000000754471
       -0.000000000396146
        0.000000000325692
       -0.000000000406455
        0.000000000749022
       -0.000000000000194
        0.000000000000000
        0.000000000000000
        0.000000000000000
        0.000000000436315
        0.000000001015502
       -0.000000000431073
        0.000000000453878
       -0.000000000564773
       -0.000000000000194
        0.000000000000000
        0.000000000000000
        0.000000000000000
        0.000000000000000
        0.000000000680385
        0.000000000456148
       -0.000000000344567
       -0.000000000390686
        0.000000000000000
        0.000000000000000
        0.000000000000000
        0.000000000000000
        0.000000000000000
        0.000000000000000
        0.000000000364093
       -0.000000000337553
        0.000000000000000
        0.000000000000000
        0.000000000000000
        0.000000000000000
        0.000000000000000
        0.000000000000000
        0.000000000000000
        0.000000000000000
        0.000000000000000
        0.000000000000000
        0.000000000000000
        0.000000000000000
        0.000000000000000
        0.000000000000000
        0.000000000000000
        0.000000000000000
        0.000000000000000
        0.000000000000000
        0.000000000000000
        0.000000000000000
        0.000000000000000
        0.000000000000000
        0.000000000000000
        0.000000000000000
        0.000000000000000
        0.000000000000000
        0.000000000000000
        0.000000000000000
        0.000000000000000
        0.000000000000000
        0.000000000000000
        0.000000000000000
        0.000000000000000
        0.000000000000000
        0.000000000000000
        0.000000000000000
        0.000000000000000
        0.000000000000000
        0.000000000000000
        0.000000000000000
        0.000000000000000
        0.000000000000000
       -0.000000000009225
        0.000000000201981
        0.000000000000000
        0.000000000000000
        0.000000000000000
        0.000000000000000
        0.000000000000000
        0.000000000000000
        0.000000000000000
       -0.000000000009225
        0.000000000598015
       -0.000000000009757
        0.000000000000000
        0.000000000000000
        0.000000000000000
        0.000000000000000
        0.000000000000000
        0.000000000000000
        0.000000000000000
        0.000000000201872
       -0.000000000009757
        0.000000000000000
        0.000000000000000
        0.000000000000000
        0.000000000000000
        0.000000000000000
        0.000000000000000
        0.000000000000000
        0.000000000000000
        0.000000000000000
        0.000000000000000
        0.000000000000000
        0.000000000000000
        0.000000000000000
        0.000000000000000
        0.000000000000000
        0.000000000000000
        0.000000000000000
        0.000000000000000
        0.000000000000000
        0.000000000000000
        0.000000000000000
        0.000000000000000
        0.000000000000000
        0.000000000000000
        0.000000000000000
        0.000000000000000
        0.000000000000000
        0.000000000000000
        0.000000000000000
        0.000000000000000
END_DATAGRID_3D
END_BLOCK_DATAGRID_3D
