ATOMS
         C    7.558905    7.558905    7.558905
         H    8.755769    8.755769    8.755769
         H    6.362040    6.362040    8.755769
         H    8.755769    6.362040    6.362040
         H    6.362040    8.755769    6.362040
BEGIN_BLOCK_DATAGRID_3D
units: coords = b, function = sqrt(b^-3)
BEGIN_DATAGRID_3D_function
      9      9      9
0.0 0.0 0.0
   15.117809    0.000000    0.000000
    0.000000   15.117809    0.000000
    0.000000    0.000000   15.117809
        0.000000000000000
        0.000000000000000
        0.000000000000000
        0.000000000000000
        0.000000000000000
        0.000000000000000
        0.000000000000000
        0.000000000000000
        0.000000000000000
        0.000000000000000
        0.000000000000000
        0.000000000000000
        0.000000000000000
        0.000000000000000
        0.000000000000000
        0.000000000000000
        0.000000000000000
        0.000000000000000
        0.000000000000000
        0.000000000000000
        0.000000000000000
        0.000000000000000
        0.000000000000000
        0.000000000000000
        0.000000000000000
        0.000000000000000
        0.000000000000000
        0.000000000000000
        0.000000000000000
        0.000000000000000
        0.000000000000000
        0.000238689668067
        0.000167828765740
        0.000000000000000
        0.000000000000000
        0.000000000000000
        0.000000000000000
        0.000000000000000
        0.000000000000000
        0.000377823704014
        0.000477312539808
        0.000261441753967
        0.000000000000000
        0.000000000000000
        0.000000000000000
        0.000000000000000
        0.000000000000000
        0.000000000000000
        0.000376274882400
        0.000401667941780
        0.000000000000000
        0.000000000000000
        0.000000000000000
        0.000000000000000
        0.000000000000000
        0.000000000000000
        0.000000000000000
        0.000000000000000
        0.000000000000000
        0.000000000000000
        0.000000000000000
        0.000000000000000
        0.000000000000000
        0.000000000000000
        0.000000000000000
        0.000000000000000
        0.000000000000000
        0.000000000000000
        0.000000000000000
        0.000000000000000
        0.000000000000000
        0.000000000000000
        0.000000000000000
        0.000000000000000
        0.000000000000000
        0.000000000000000
        0.000000000000000
        0.000000000000000
        0.000000000000000
        0.000000000000000
        0.000000000000000
        0.000000000000000
        0.000000000000000
        0.000000000000000
        0.000000000000000
        0.000000000000000
        0.000000000000000
        0.000000000000000
        0.000000000000000
        0.000000000000000
        0.000000000000000
        0.000000000000000
        0.000000000000000
        0.000000000000000
        0.000007504307666
       -0.000013962713426
        0.000000000000000
        0.000000000000000
        0.000000000000000
        0.000000000000000
        0.000000000000000
        0.000000000000000
        0.000270751982692
        0.000298212970155
        0.000130318763204
        0.000014790316342
        0.000000000000000
        0.000000000000000
        0.000000000000000
        0.000000000000000
        0.000557451165671
        0.001184144315743
        0.001358923837028
        0.000759273679628
        0.000207628379616
        0.000027872283985
        0.000000000000000
        0.000000000000000
        0.000337632216905
        0.001201950756871
        0.002465358046102
        0.002769882716667
        0.001585079443208
        0.000489949563964
        0.000075802933788
        0.000000000000000
        0.000000000000000
        0.000357115321017
        0.001272416145037
        0.002525206980788
        0.002700021624470
        0.001502360507198
        0.000449291554099
        0.000000000000000
        0.000000000000000
        0.000000000000000
        0.000000000000000
        0.000668948808710
        0.001358461229469
        0.001407475362811
        0.000742574304194
        0.000000000000000
        0.000000000000000
        0.000000000000000
        0.000000000000000
        0.000000000000000
        0.000000000000000
        0.000404545649364
        0.000413452167983
        0.000000000000000
        0.000000000000000
        0.000000000000000
        0.000000000000000
        0.000000000000000
        0.000000000000000
        0.000000000000000
        0.000000000000000
        0.000000000000000
        0.000000000000000
        0.000000000000000
        0.000000000000000
        0.000000000000000
        0.000000000000000
        0.000000000000000
        0.000000000000000
        0.000000000000000
        0.000000000000000
        0.000000000000000
        0.000000000000000
        0.000000000000000
        0.000000000000000
        0.000000000000000
        0.000000000000000
        0.000000000000000
       -0.000083592373833
       -0.000213540226779
       -0.000253408910076
       -0.000148386546157
        0.000000000000000
        0.000000000000000
        0.000000000000000
        0.000000000000000
        0.000272606422039
        0.000441368150680
        0.000164638708272
       -0.000322685115632
       -0.000299997786087
       -0.000111632387467
        0.000000000000000
        0.000000000000000
        0.000443935508907
        0.001699455499419
        0.003681875089903
        0.004020404448736
        0.001266495934004
        0.000021018417511
       -0.000090802203698
        0.000000000000000
        0.000000000000000
        0.001035744230024
        0.004172960433146
        0.010474966705839
        0.012683964100893
        0.005441298482619
        0.001093258426168
        0.000090144456006
        0.000000000000000
        0.000000000000000
        0.001145340969888
        0.004656630075820
        0.011404744083135
        0.011943891668378
        0.005383326433135
        0.001346419984724
        0.000170889921228
        0.000000000000000
        0.000000000000000
        0.000614115038700
        0.002388949579167
        0.005038115271069
        0.005160711362847
        0.002632203032243
        0.000707031936519
        0.000000000000000
        0.000000000000000
        0.000000000000000
        0.000000000000000
        0.000656381387454
        0.001328362945397
        0.001366583689250
        0.000713740756205
        0.000000000000000
        0.000000000000000
        0.000000000000000
        0.000000000000000
        0.000000000000000
        0.000000000000000
        0.000000000000000
        0.000000000000000
        0.000000000000000
        0.000000000000000
        0.000000000000000
        0.000000000000000
        0.000000000000000
        0.000000000000000
        0.000000000000000
        0.000000000000000
       -0.000206647726532
       -0.000186038262933
        0.000000000000000
        0.000000000000000
        0.000000000000000
        0.000000000000000
        0.000000000000000
       -0.000213558415345
       -0.000649970726885
       -0.001122271982840
       -0.001009303609196
       -0.000508536835703
       -0.000154011855355
        0.000000000000000
        0.000000000000000
        0.000027919900141
       -0.000133321645456
       -0.001158008154972
       -0.003042380058749
       -0.003148020824238
       -0.001477106883480
       -0.000422707268313
        0.000000000000000
        0.000000000000000
        0.000601737432534
        0.002154742848188
        0.004200210376576
        0.001529631998570
       -0.004106547748842
       -0.002145718146453
       -0.000611077366936
       -0.000106979912055
        0.000233830088735
        0.001668040427113
        0.008219086112835
        0.026894060272508
        0.033650323654644
        0.008042728759133
       -0.000037306944510
       -0.000345864731440
       -0.000086198336678
        0.000260725462363
        0.001946954947858
        0.009962619253244
        0.033327118859051
        0.033581335098534
        0.010694354924594
        0.001608708793178
        0.000067480235220
        0.000000000000000
        0.000000000000000
        0.001120247965808
        0.004541273973832
        0.011058505269689
        0.011379606173024
        0.004989420922504
        0.001194470110552
        0.000135764439320
        0.000000000000000
        0.000000000000000
        0.000343364657830
        0.001217267226587
        0.002386486133427
        0.002501777813807
        0.001353087039529
        0.000385384032775
        0.000000000000000
        0.000000000000000
        0.000000000000000
        0.000000000000000
        0.000000000000000
        0.000348510406412
        0.000366098686105
        0.000000000000000
        0.000000000000000
        0.000000000000000
        0.000000000000000
        0.000000000000000
        0.000000000000000
        0.000000000000000
       -0.000268628187497
       -0.000406659757332
       -0.000276966131771
        0.000000000000000
        0.000000000000000
        0.000000000000000
        0.000000000000000
       -0.000142037749102
       -0.000620628868464
       -0.001617757172193
       -0.002359752029959
       -0.001841908927435
       -0.000835907426055
       -0.000218451423108
        0.000000000000000
        0.000000000000000
       -0.000272105901417
       -0.001651770156058
       -0.005948831526272
       -0.010805373855154
       -0.007665195906601
       -0.002906165520029
       -0.000721731889566
        0.000000000000000
        0.000034222084367
        0.000073829174832
       -0.001118998200181
       -0.009956868042563
       -0.028662813089054
       -0.020039143963355
       -0.006070477486995
       -0.001285580527228
       -0.000177652921638
        0.000194745261477
        0.001139999702084
        0.005272923842078
        0.014121604102176
        0.000020232846551
       -0.014370235881288
       -0.005467351055010
       -0.001205454049959
       -0.000209432926042
        0.000227030064141
        0.001597013087118
        0.007754595951263
        0.024691011539912
        0.028671991729683
        0.005044470726208
       -0.000811487945036
       -0.000480533962543
       -0.000103347412089
        0.000000000000000
        0.000974365300340
        0.003865027082376
        0.009447031789613
        0.010807314209989
        0.004104662721990
        0.000610335078465
       -0.000020289322475
        0.000000000000000
        0.000000000000000
        0.000315384284340
        0.001099857398919
        0.002196570299640
        0.002360050097855
        0.001252778130409
        0.000338860443094
        0.000035301436361
        0.000000000000000
        0.000000000000000
        0.000000000000000
        0.000000000000000
        0.000335583350263
        0.000406686741719
        0.000208842831051
        0.000000000000000
        0.000000000000000
        0.000000000000000
        0.000000000000000
        0.000000000000000
        0.000000000000000
       -0.000278290008729
       -0.000338900542421
        0.000000000000000
        0.000000000000000
        0.000000000000000
        0.000000000000000
        0.000000000000000
       -0.000180978010235
       -0.000764372827632
       -0.001795461684455
       -0.002335677759434
       -0.001645437904248
       -0.000653871657068
        0.000000000000000
        0.000000000000000
        0.000000000000000
       -0.000502567647924
       -0.002560793241292
       -0.007684141431970
       -0.010557397606992
       -0.006601276056284
       -0.002510857943473
       -0.000574737444619
        0.000000000000000
       -0.000037964218371
       -0.000588151651671
       -0.004656313687332
       -0.020920627459788
       -0.031436266497922
       -0.017029790496195
       -0.005510408569774
       -0.001235050886437
        0.000000000000000
        0.000027422059774
        0.000002801834837
       -0.001583488361753
       -0.012159916775158
       -0.033641145014014
       -0.023037401996280
       -0.006844658487521
       -0.001420249758331
       -0.000194801997049
        0.000000000000000
        0.000503242757284
        0.001606708962071
        0.002025554687506
       -0.003664905838402
       -0.008520808691446
       -0.003357335791094
       -0.000825319697849
       -0.000132627366375
        0.000000000000000
        0.000387557835081
        0.001402465264962
        0.002741974860471
        0.002222811236787
       -0.000286933506740
       -0.000577359340839
       -0.000229960235034
        0.000000000000000
        0.000000000000000
        0.000000000000000
        0.000472493991182
        0.000937263489224
        0.000956618469273
        0.000407659483883
        0.000038781414333
       -0.000017560553405
        0.000000000000000
        0.000000000000000
        0.000000000000000
        0.000000000000000
        0.000000000000000
        0.000179503045812
        0.000114575734163
        0.000000000000000
        0.000000000000000
        0.000000000000000
        0.000000000000000
        0.000000000000000
        0.000000000000000
        0.000000000000000
        0.000000000000000
        0.000000000000000
        0.000000000000000
        0.000000000000000
        0.000000000000000
        0.000000000000000
        0.000000000000000
       -0.000439000567026
       -0.001017532709915
       -0.001239607173190
       -0.000782377645928
        0.000000000000000
        0.000000000000000
        0.000000000000000
        0.000000000000000
       -0.000327552130922
       -0.001499759280713
       -0.003705245148607
       -0.004701228017981
       -0.003074935773343
       -0.001125991853585
        0.000000000000000
        0.000000000000000
        0.000000000000000
       -0.000527660652005
       -0.002676149343280
       -0.008030380245416
       -0.011121683102345
       -0.006995181566915
       -0.002662807817644
       -0.000609862926528
        0.000000000000000
        0.000000000000000
       -0.000333484831100
       -0.001959703506829
       -0.006976766442498
       -0.012682023746058
       -0.009001831667229
       -0.003389088867732
       -0.000832165668046
        0.000000000000000
        0.000000000000000
       -0.000028457773685
       -0.000430311879914
       -0.002097908384404
       -0.004839973270697
       -0.004701450264982
       -0.002075484641829
       -0.000561865299649
        0.000000000000000
        0.000000000000000
        0.000000000000000
        0.000131444284301
       -0.000006212697452
       -0.000623210445147
       -0.001034203596361
       -0.000622386750606
       -0.000191140158156
        0.000000000000000
        0.000000000000000
        0.000000000000000
        0.000000000000000
        0.000151128242281
        0.000086748438855
       -0.000063041166206
       -0.000077038445757
        0.000000000000000
        0.000000000000000
        0.000000000000000
        0.000000000000000
        0.000000000000000
        0.000000000000000
        0.000000000000000
        0.000000000000000
        0.000000000000000
        0.000000000000000
        0.000000000000000
        0.000000000000000
        0.000000000000000
        0.000000000000000
        0.000000000000000
        0.000000000000000
        0.000000000000000
        0.000000000000000
        0.000000000000000
        0.000000000000000
        0.000000000000000
        0.000000000000000
        0.000000000000000
       -0.000319251192890
       -0.000366118760496
        0.000000000000000
        0.000000000000000
        0.000000000000000
        0.000000000000000
        0.000000000000000
        0.000000000000000
       -0.000451567988282
       -0.001047630993987
       -0.001280498846751
       -0.000811211193917
        0.000000000000000
        0.000000000000000
        0.000000000000000
        0.000000000000000
       -0.000194728673421
       -0.000819521746083
       -0.001934182531816
       -0.002533921570098
       -0.001794711371917
       -0.000717779178392
        0.000000000000000
        0.000000000000000
        0.000000000000000
       -0.000164285681668
       -0.000722722226416
       -0.001886544918655
       -0.002769584648771
       -0.002174210240234
       -0.000986996546926
       -0.000258952920535
        0.000000000000000
        0.000000000000000
        0.000000000000000
       -0.000298515589835
       -0.000896851553404
       -0.001524577350595
       -0.001360917804941
       -0.000677383800986
       -0.000199444692745
        0.000000000000000
        0.000000000000000
        0.000000000000000
        0.000000000000000
       -0.000203216114244
       -0.000425004758078
       -0.000446768839486
       -0.000240215308256
        0.000000000000000
        0.000000000000000
        0.000000000000000
        0.000000000000000
        0.000000000000000
        0.000000000000000
       -0.000054796425380
       -0.000072843226455
        0.000000000000000
        0.000000000000000
        0.000000000000000
        0.000000000000000
        0.000000000000000
        0.000000000000000
        0.000000000000000
        0.000000000000000
        0.000000000000000
        0.000000000000000
        0.000000000000000
        0.000000000000000
        0.000000000000000
        0.000000000000000
        0.000000000000000
        0.000000000000000
        0.000000000000000
        0.000000000000000
        0.000000000000000
        0.000000000000000
        0.000000000000000
        0.000000000000000
        0.000000000000000
        0.000000000000000
        0.000000000000000
        0.000000000000000
        0.000000000000000
        0.000000000000000
        0.000000000000000
        0.000000000000000
        0.000000000000000
        0.000000000000000
        0.000000000000000
        0.000000000000000
        0.000000000000000
        0.000000000000000
        0.000000000000000
        0.000000000000000
        0.000000000000000
        0.000000000000000
        0.000000000000000
        0.000000000000000
       -0.000306054484717
       -0.000374469798096
        0.000000000000000
        0.000000000000000
        0.000000000000000
        0.000000000000000
        0.000000000000000
        0.000000000000000
        0.000000000000000
       -0.000310868541247
       -0.000477285555421
       -0.000329565054687
        0.000000000000000
        0.000000000000000
        0.000000000000000
        0.000000000000000
        0.000000000000000
        0.000000000000000
        0.000000000000000
       -0.000265834348787
       -0.000239291294511
        0.000000000000000
        0.000000000000000
        0.000000000000000
        0.000000000000000
        0.000000000000000
        0.000000000000000
        0.000000000000000
        0.000000000000000
        0.000000000000000
        0.000000000000000
        0.000000000000000
        0.000000000000000
        0.000000000000000
        0.000000000000000
        0.000000000000000
        0.000000000000000
        0.000000000000000
        0.000000000000000
        0.000000000000000
        0.000000000000000
        0.000000000000000
        0.000000000000000
        0.000000000000000
        0.000000000000000
        0.000000000000000
        0.000000000000000
        0.000000000000000
        0.000000000000000
        0.000000000000000
        0.000000000000000
END_DATAGRID_3D
END_BLOCK_DATAGRID_3D
