ATOMS
         C    7.558905    7.558905    7.558905
         H    8.755769    8.755769    8.755769
         H    6.362040    6.362040    8.755769
         H    8.755769    6.362040    6.362040
         H    6.362040    8.755769    6.362040
BEGIN_BLOCK_DATAGRID_3D
units: coords = b, function = sqrt(b^-3)
BEGIN_DATAGRID_3D_function
      9      9      9
0.0 0.0 0.0
   15.117809    0.000000    0.000000
    0.000000   15.117809    0.000000
    0.000000    0.000000   15.117809
        0.000000000000000
        0.000000000000000
        0.000000000000000
        0.000000000000000
        0.000000000000000
        0.000000000000000
        0.000000000000000
        0.000000000000000
        0.000000000000000
        0.000000000000000
        0.000000000000000
        0.000000000000000
        0.000000000000000
        0.000000000000000
        0.000000000000000
        0.000000000000000
        0.000000000000000
        0.000000000000000
        0.000000000000000
        0.000000000000000
        0.000000000000000
        0.000000000000000
        0.000000000000000
        0.000000000000000
        0.000000000000000
        0.000000000000000
        0.000000000000000
        0.000000000000000
        0.000000000000000
        0.000000000000000
        0.000000000000000
       -0.000045603144016
        0.000017366539532
        0.000000000000000
        0.000000000000000
        0.000000000000000
        0.000000000000000
        0.000000000000000
        0.000000000000000
       -0.000099985767451
       -0.000042223574499
        0.000044621533728
        0.000000000000000
        0.000000000000000
        0.000000000000000
        0.000000000000000
        0.000000000000000
        0.000000000000000
       -0.000064932626350
       -0.000011084778002
        0.000000000000000
        0.000000000000000
        0.000000000000000
        0.000000000000000
        0.000000000000000
        0.000000000000000
        0.000000000000000
        0.000000000000000
        0.000000000000000
        0.000000000000000
        0.000000000000000
        0.000000000000000
        0.000000000000000
        0.000000000000000
        0.000000000000000
        0.000000000000000
        0.000000000000000
        0.000000000000000
        0.000000000000000
        0.000000000000000
        0.000000000000000
        0.000000000000000
        0.000000000000000
        0.000000000000000
        0.000000000000000
        0.000000000000000
        0.000000000000000
        0.000000000000000
        0.000000000000000
        0.000000000000000
        0.000000000000000
        0.000000000000000
        0.000000000000000
        0.000000000000000
        0.000000000000000
        0.000000000000000
        0.000000000000000
        0.000000000000000
        0.000000000000000
        0.000000000000000
        0.000000000000000
        0.000000000000000
        0.000000000000000
        0.000000000000000
       -0.000098460810783
       -0.000033913983690
        0.000000000000000
        0.000000000000000
        0.000000000000000
        0.000000000000000
        0.000000000000000
        0.000000000000000
       -0.000353422906313
       -0.000297786676191
       -0.000004467873054
        0.000100287043677
        0.000000000000000
        0.000000000000000
        0.000000000000000
        0.000000000000000
       -0.000462270386067
       -0.000756575642239
       -0.000425827723777
        0.000203981713703
        0.000330143521978
        0.000150504431987
        0.000000000000000
        0.000000000000000
       -0.000223802764153
       -0.000644845220588
       -0.000855764250582
       -0.000245207829116
        0.000509040033988
        0.000515290439830
        0.000198213076111
        0.000000000000000
        0.000000000000000
       -0.000176356691187
       -0.000448549768346
       -0.000489796640056
        0.000066526475754
        0.000530904815702
        0.000388558214586
        0.000000000000000
        0.000000000000000
        0.000000000000000
        0.000000000000000
       -0.000157162951451
       -0.000127195097335
        0.000146836678062
        0.000269758750292
        0.000000000000000
        0.000000000000000
        0.000000000000000
        0.000000000000000
        0.000000000000000
        0.000000000000000
       -0.000001289223194
        0.000061156653813
        0.000000000000000
        0.000000000000000
        0.000000000000000
        0.000000000000000
        0.000000000000000
        0.000000000000000
        0.000000000000000
        0.000000000000000
        0.000000000000000
        0.000000000000000
        0.000000000000000
        0.000000000000000
        0.000000000000000
        0.000000000000000
        0.000000000000000
        0.000000000000000
        0.000000000000000
        0.000000000000000
        0.000000000000000
        0.000000000000000
        0.000000000000000
        0.000000000000000
        0.000000000000000
        0.000000000000000
        0.000000000000000
       -0.000469451834912
       -0.000465358627187
       -0.000130118274943
        0.000046855300856
        0.000000000000000
        0.000000000000000
        0.000000000000000
        0.000000000000000
       -0.000941057079114
       -0.001795685538119
       -0.001441018444801
        0.000022632546891
        0.000442232916174
        0.000214809617161
        0.000000000000000
        0.000000000000000
       -0.000664610434829
       -0.002268369630921
       -0.003919663472193
       -0.002449981818947
        0.001435794540382
        0.001547051948725
        0.000602694191033
        0.000000000000000
        0.000000000000000
       -0.000934602371531
       -0.002969713508028
       -0.004944534316869
       -0.001123563364595
        0.003608992732564
        0.002601109265659
        0.000882788768622
        0.000000000000000
        0.000000000000000
       -0.000664108390803
       -0.001905115185579
       -0.002530152438595
        0.001035844565497
        0.003183449046651
        0.002078187652760
        0.000645631496235
        0.000000000000000
        0.000000000000000
       -0.000248290007903
       -0.000612149690077
       -0.000440455254358
        0.000969309405861
        0.001556187707506
        0.000888516692292
        0.000000000000000
        0.000000000000000
        0.000000000000000
        0.000000000000000
       -0.000090643072803
        0.000032116360691
        0.000363277991482
        0.000422375908108
        0.000000000000000
        0.000000000000000
        0.000000000000000
        0.000000000000000
        0.000000000000000
        0.000000000000000
        0.000000000000000
        0.000000000000000
        0.000000000000000
        0.000000000000000
        0.000000000000000
        0.000000000000000
        0.000000000000000
        0.000000000000000
        0.000000000000000
        0.000000000000000
       -0.000191427452514
       -0.000098506089586
        0.000000000000000
        0.000000000000000
        0.000000000000000
        0.000000000000000
        0.000000000000000
       -0.000714735012574
       -0.001357150759086
       -0.001238287375873
       -0.000375133274835
        0.000095637507974
        0.000090947051072
        0.000000000000000
        0.000000000000000
       -0.000800833418142
       -0.002868506657419
       -0.005504467793492
       -0.004762668063955
       -0.000009724882492
        0.001056495600414
        0.000494012936952
        0.000000000000000
        0.000000000000000
       -0.001812556407114
       -0.006733149854895
       -0.014499040030184
       -0.010748568416613
        0.006052044399557
        0.004522187022100
        0.001450349543601
        0.000268639663854
       -0.000352231197563
       -0.002273578213675
       -0.009019777838265
       -0.020490406162111
       -0.002986030084400
        0.017721960563436
        0.008604254074693
        0.002277866138026
        0.000364238485988
       -0.000263954294244
       -0.001493313521244
       -0.005058973583906
       -0.008542657584837
        0.007632263813733
        0.013436887027655
        0.006645304114622
        0.001853048153797
        0.000000000000000
        0.000000000000000
       -0.000531290086050
       -0.001294530583605
       -0.000697496129550
        0.004022630948203
        0.005268407148376
        0.002882464599032
        0.000831552119596
        0.000000000000000
        0.000000000000000
       -0.000103573864237
       -0.000156644270144
        0.000244458522104
        0.001115839135782
        0.001321015432056
        0.000726823358762
        0.000000000000000
        0.000000000000000
        0.000000000000000
        0.000000000000000
        0.000000000000000
        0.000082025889307
        0.000177184758196
        0.000000000000000
        0.000000000000000
        0.000000000000000
        0.000000000000000
        0.000000000000000
        0.000000000000000
        0.000000000000000
       -0.000311664376075
       -0.000331677481863
       -0.000131678410045
        0.000000000000000
        0.000000000000000
        0.000000000000000
        0.000000000000000
       -0.000380869163582
       -0.001241643101860
       -0.002192767296920
       -0.001924890354876
       -0.000613116370216
        0.000081142800126
        0.000101860426103
        0.000000000000000
        0.000000000000000
       -0.001362853722866
       -0.004877002948935
       -0.010322454628883
       -0.008815072108451
       -0.000682687023784
        0.001291510659256
        0.000616942450494
        0.000000000000000
       -0.000417592201514
       -0.002795597600063
       -0.012077503742623
       -0.032557125023448
       -0.023390267829118
        0.008526640968094
        0.006628711636352
        0.001970159199943
        0.000334291974034
       -0.000547019539107
       -0.003202142670308
       -0.014811104249537
       -0.039666142882432
       -0.000056831998431
        0.040364524143087
        0.015357230422782
        0.003385997244923
        0.000588275687985
       -0.000316238387143
       -0.001897627575844
       -0.006561212270114
       -0.008829578426627
        0.023364485965526
        0.033591863898386
        0.012702026016661
        0.002990675928353
        0.000455009248900
        0.000000000000000
       -0.000609721167116
       -0.001339809591598
        0.000496367558814
        0.008809621849997
        0.010683860900102
        0.005157242447687
        0.001467319309405
        0.000000000000000
        0.000000000000000
       -0.000106043540184
       -0.000104460869392
        0.000566940368944
        0.001924053112615
        0.002267924577710
        0.001315011383406
        0.000412589171172
        0.000000000000000
        0.000000000000000
        0.000000000000000
        0.000000000000000
        0.000123594165794
        0.000331601685478
        0.000323029800469
        0.000000000000000
        0.000000000000000
        0.000000000000000
        0.000000000000000
        0.000000000000000
        0.000000000000000
       -0.000279267810805
       -0.000253581564515
        0.000000000000000
        0.000000000000000
        0.000000000000000
        0.000000000000000
        0.000000000000000
       -0.000352553635098
       -0.001115489816720
       -0.001904585804408
       -0.001582397215293
       -0.000499831727441
        0.000027330942005
        0.000000000000000
        0.000000000000000
        0.000000000000000
       -0.001203710808150
       -0.004268437415245
       -0.008780747075388
       -0.006332130791381
       -0.000740870787798
        0.000815134306271
        0.000401478195073
        0.000000000000000
       -0.000361759276886
       -0.002323426086075
       -0.009845896516714
       -0.026305908976875
       -0.013657542315303
        0.004358704095512
        0.004314171855886
        0.001426538495240
        0.000000000000000
       -0.000381599391093
       -0.002419646962231
       -0.009618938174472
       -0.020896297287964
        0.002960248220807
        0.024396544303044
        0.010726483578321
        0.002682968990270
        0.000425062736946
        0.000000000000000
       -0.001291220031770
       -0.003832383909653
       -0.002988497844234
        0.016746334436042
        0.029416909492913
        0.010935329149368
        0.002584343030656
        0.000404392696574
        0.000000000000000
       -0.000366201083784
       -0.000696388080132
        0.001055267178127
        0.007064753135785
        0.009658160591450
        0.004714290084506
        0.001339263385990
        0.000000000000000
        0.000000000000000
        0.000000000000000
       -0.000012588560170
        0.000550174747185
        0.001703591167891
        0.002065090142792
        0.001223857467882
        0.000390982312712
        0.000000000000000
        0.000000000000000
        0.000000000000000
        0.000000000000000
        0.000000000000000
        0.000267674086830
        0.000299237030380
        0.000000000000000
        0.000000000000000
        0.000000000000000
        0.000000000000000
        0.000000000000000
        0.000000000000000
        0.000000000000000
        0.000000000000000
        0.000000000000000
        0.000000000000000
        0.000000000000000
        0.000000000000000
        0.000000000000000
        0.000000000000000
       -0.000519957438344
       -0.000905206729435
       -0.000719942049778
       -0.000229581898656
        0.000000000000000
        0.000000000000000
        0.000000000000000
        0.000000000000000
       -0.000556635917120
       -0.001885494994830
       -0.003303440717994
       -0.002259951168487
       -0.000312596679168
        0.000288298902601
        0.000000000000000
        0.000000000000000
        0.000000000000000
       -0.001070892503398
       -0.003657852813271
       -0.006948090766343
       -0.003345344408674
        0.001344087313927
        0.001619411252543
        0.000587398818435
        0.000000000000000
        0.000000000000000
       -0.001037972518450
       -0.003247099032505
       -0.004881552753201
        0.001118113106141
        0.006392181143755
        0.003847643841284
        0.001201472991277
        0.000000000000000
        0.000000000000000
       -0.000502424067097
       -0.001296525106630
       -0.000529537143172
        0.004752066890778
        0.008212641168576
        0.004223733736195
        0.001230582131908
        0.000000000000000
        0.000000000000000
        0.000000000000000
       -0.000193880066373
        0.000573378337116
        0.002729099593735
        0.003788729189075
        0.002148650991935
        0.000635647524156
        0.000000000000000
        0.000000000000000
        0.000000000000000
        0.000000000000000
        0.000279750481713
        0.000821503803027
        0.001018994202220
        0.000586340465989
        0.000000000000000
        0.000000000000000
        0.000000000000000
        0.000000000000000
        0.000000000000000
        0.000000000000000
        0.000000000000000
        0.000000000000000
        0.000000000000000
        0.000000000000000
        0.000000000000000
        0.000000000000000
        0.000000000000000
        0.000000000000000
        0.000000000000000
        0.000000000000000
        0.000000000000000
        0.000000000000000
        0.000000000000000
        0.000000000000000
        0.000000000000000
        0.000000000000000
        0.000000000000000
       -0.000238294189081
       -0.000194111358596
        0.000000000000000
        0.000000000000000
        0.000000000000000
        0.000000000000000
        0.000000000000000
        0.000000000000000
       -0.000453437559696
       -0.000745895271408
       -0.000503500736359
       -0.000076964740840
        0.000000000000000
        0.000000000000000
        0.000000000000000
        0.000000000000000
       -0.000279770808148
       -0.000823584318518
       -0.001170330642248
       -0.000533084555265
        0.000290278888913
        0.000365596086181
        0.000000000000000
        0.000000000000000
        0.000000000000000
       -0.000263109939613
       -0.000701258750663
       -0.000770062677394
        0.000244370586855
        0.001145768173506
        0.000880863743701
        0.000316236521165
        0.000000000000000
        0.000000000000000
        0.000000000000000
       -0.000265053186678
       -0.000050400369662
        0.000891131515795
        0.001485975154254
        0.000989351453877
        0.000331424931796
        0.000000000000000
        0.000000000000000
        0.000000000000000
        0.000000000000000
        0.000163721553114
        0.000653931852030
        0.000893343800330
        0.000532908723167
        0.000000000000000
        0.000000000000000
        0.000000000000000
        0.000000000000000
        0.000000000000000
        0.000000000000000
        0.000231299536814
        0.000277742998400
        0.000000000000000
        0.000000000000000
        0.000000000000000
        0.000000000000000
        0.000000000000000
        0.000000000000000
        0.000000000000000
        0.000000000000000
        0.000000000000000
        0.000000000000000
        0.000000000000000
        0.000000000000000
        0.000000000000000
        0.000000000000000
        0.000000000000000
        0.000000000000000
        0.000000000000000
        0.000000000000000
        0.000000000000000
        0.000000000000000
        0.000000000000000
        0.000000000000000
        0.000000000000000
        0.000000000000000
        0.000000000000000
        0.000000000000000
        0.000000000000000
        0.000000000000000
        0.000000000000000
        0.000000000000000
        0.000000000000000
        0.000000000000000
        0.000000000000000
        0.000000000000000
        0.000000000000000
        0.000000000000000
        0.000000000000000
        0.000000000000000
        0.000000000000000
        0.000000000000000
        0.000000000000000
        0.000000000000000
       -0.000132309295149
       -0.000065312028317
        0.000000000000000
        0.000000000000000
        0.000000000000000
        0.000000000000000
        0.000000000000000
        0.000000000000000
        0.000000000000000
       -0.000088084442830
        0.000042147778114
        0.000146729856696
        0.000000000000000
        0.000000000000000
        0.000000000000000
        0.000000000000000
        0.000000000000000
        0.000000000000000
        0.000000000000000
        0.000121849778332
        0.000183364401262
        0.000000000000000
        0.000000000000000
        0.000000000000000
        0.000000000000000
        0.000000000000000
        0.000000000000000
        0.000000000000000
        0.000000000000000
        0.000000000000000
        0.000000000000000
        0.000000000000000
        0.000000000000000
        0.000000000000000
        0.000000000000000
        0.000000000000000
        0.000000000000000
        0.000000000000000
        0.000000000000000
        0.000000000000000
        0.000000000000000
        0.000000000000000
        0.000000000000000
        0.000000000000000
        0.000000000000000
        0.000000000000000
        0.000000000000000
        0.000000000000000
        0.000000000000000
        0.000000000000000
        0.000000000000000
END_DATAGRID_3D
END_BLOCK_DATAGRID_3D
