ATOMS
         C    7.558905    7.558905    7.558905
         H    8.755769    8.755769    8.755769
         H    6.362040    6.362040    8.755769
         H    8.755769    6.362040    6.362040
         H    6.362040    8.755769    6.362040
BEGIN_BLOCK_DATAGRID_3D
units: coords = b, function = sqrt(b^-3)
BEGIN_DATAGRID_3D_function
      9      9      9
0.0 0.0 0.0
   15.117809    0.000000    0.000000
    0.000000   15.117809    0.000000
    0.000000    0.000000   15.117809
        0.000000000000000
        0.000000000000000
        0.000000000000000
        0.000000000000000
        0.000000000000000
        0.000000000000000
        0.000000000000000
        0.000000000000000
        0.000000000000000
        0.000000000000000
        0.000000000000000
        0.000000000000000
        0.000000000000000
        0.000000000000000
        0.000000000000000
        0.000000000000000
        0.000000000000000
        0.000000000000000
        0.000000000000000
        0.000000000000000
        0.000000000000000
        0.000000000000000
        0.000000000000000
        0.000000000000000
        0.000000000000000
        0.000000000000000
        0.000000000000000
        0.000000000000000
        0.000000000000000
        0.000000000000000
        0.000000000000000
        0.000732201907902
        0.000510121396032
        0.000000000000000
        0.000000000000000
        0.000000000000000
        0.000000000000000
        0.000000000000000
        0.000000000000000
        0.001170841324011
        0.001464899112171
        0.000794650956774
        0.000000000000000
        0.000000000000000
        0.000000000000000
        0.000000000000000
        0.000000000000000
        0.000000000000000
        0.001166012424698
        0.001233168657936
        0.000000000000000
        0.000000000000000
        0.000000000000000
        0.000000000000000
        0.000000000000000
        0.000000000000000
        0.000000000000000
        0.000000000000000
        0.000000000000000
        0.000000000000000
        0.000000000000000
        0.000000000000000
        0.000000000000000
        0.000000000000000
        0.000000000000000
        0.000000000000000
        0.000000000000000
        0.000000000000000
        0.000000000000000
        0.000000000000000
        0.000000000000000
        0.000000000000000
        0.000000000000000
        0.000000000000000
        0.000000000000000
        0.000000000000000
        0.000000000000000
        0.000000000000000
        0.000000000000000
        0.000000000000000
        0.000000000000000
        0.000000000000000
        0.000000000000000
        0.000000000000000
        0.000000000000000
        0.000000000000000
        0.000000000000000
        0.000000000000000
        0.000000000000000
        0.000000000000000
        0.000000000000000
        0.000000000000000
        0.000000000000000
        0.000000000000000
        0.000023003345136
       -0.000042448360933
        0.000000000000000
        0.000000000000000
        0.000000000000000
        0.000000000000000
        0.000000000000000
        0.000000000000000
        0.000839036416264
        0.000915252284913
        0.000395989609428
        0.000044489437792
        0.000000000000000
        0.000000000000000
        0.000000000000000
        0.000000000000000
        0.001745171637802
        0.003670633844352
        0.004170479960785
        0.002307210436349
        0.000624768149624
        0.000083037533108
        0.000000000000000
        0.000000000000000
        0.001067907612499
        0.003763555495962
        0.007642166219779
        0.008500700915998
        0.004816569968855
        0.001474257361592
        0.000225903395878
        0.000000000000000
        0.000000000000000
        0.001129509023325
        0.003984266717368
        0.007827678388163
        0.008286307151864
        0.004565268811082
        0.001352108006986
        0.000000000000000
        0.000000000000000
        0.000000000000000
        0.000000000000000
        0.002094229602749
        0.004211083488022
        0.004319460103894
        0.002256929038490
        0.000000000000000
        0.000000000000000
        0.000000000000000
        0.000000000000000
        0.000000000000000
        0.000000000000000
        0.001253596189719
        0.001269335160533
        0.000000000000000
        0.000000000000000
        0.000000000000000
        0.000000000000000
        0.000000000000000
        0.000000000000000
        0.000000000000000
        0.000000000000000
        0.000000000000000
        0.000000000000000
        0.000000000000000
        0.000000000000000
        0.000000000000000
        0.000000000000000
        0.000000000000000
        0.000000000000000
        0.000000000000000
        0.000000000000000
        0.000000000000000
        0.000000000000000
        0.000000000000000
        0.000000000000000
        0.000000000000000
        0.000000000000000
        0.000000000000000
       -0.000259094165752
       -0.000655358374255
       -0.000770008364062
       -0.000446570882143
        0.000000000000000
        0.000000000000000
        0.000000000000000
        0.000000000000000
        0.000853380482511
        0.001368164062262
        0.000505265709155
       -0.000980549182164
       -0.000902674627006
       -0.000332673049905
        0.000000000000000
        0.000000000000000
        0.001404063147288
        0.005321221685987
        0.011412433092829
        0.012338318856452
        0.003848723974413
        0.000063217263796
       -0.000270597643793
        0.000000000000000
        0.000000000000000
        0.003276102380314
        0.013065650635304
        0.032467454620716
        0.038926647455471
        0.016536340305748
        0.003289633973448
        0.000268575253193
        0.000000000000000
        0.000000000000000
        0.003622915165955
        0.014579777908705
        0.035350848045876
        0.036656183008774
        0.016359554712224
        0.004051305361772
        0.000509326657410
        0.000000000000000
        0.000000000000000
        0.001942321427220
        0.007480294058338
        0.015617053318308
        0.015838190900684
        0.007998630303793
        0.002127798817283
        0.000000000000000
        0.000000000000000
        0.000000000000000
        0.000000000000000
        0.002054884004090
        0.004117781666293
        0.004193968477753
        0.002169291577003
        0.000000000000000
        0.000000000000000
        0.000000000000000
        0.000000000000000
        0.000000000000000
        0.000000000000000
        0.000000000000000
        0.000000000000000
        0.000000000000000
        0.000000000000000
        0.000000000000000
        0.000000000000000
        0.000000000000000
        0.000000000000000
        0.000000000000000
        0.000000000000000
       -0.000633951547926
       -0.000565481365082
        0.000000000000000
        0.000000000000000
        0.000000000000000
        0.000000000000000
        0.000000000000000
       -0.000668619849076
       -0.002014763864716
       -0.003444209583947
       -0.003066967084584
       -0.001530160647870
       -0.000458935216838
        0.000000000000000
        0.000000000000000
        0.000088282817984
       -0.000417452444222
       -0.003589330492777
       -0.009336914959468
       -0.009566389418901
       -0.004444788219467
       -0.001259610184177
        0.000000000000000
        0.000000000000000
        0.001903275725694
        0.006746167708264
        0.013017409552747
        0.004693949870147
       -0.012480603443570
       -0.006458867351112
       -0.001820475201282
       -0.000315787194276
        0.000746804479090
        0.005277607107314
        0.025727507369391
        0.083340843892584
        0.103268599946071
        0.024453240726850
       -0.000114393131957
       -0.001030403819930
       -0.000254287971326
        0.000832550779905
        0.006161315192649
        0.031180313449924
        0.103292847568005
        0.103069015140620
        0.032508081120818
        0.004839355365472
        0.000201284079252
        0.000000000000000
        0.000000000000000
        0.003543543414839
        0.014218591590292
        0.034277630669416
        0.034924376374170
        0.015162517089067
        0.003594084370407
        0.000404650383964
        0.000000000000000
        0.000000000000000
        0.001086013574592
        0.003811585578945
        0.007397669732339
        0.007677896373029
        0.004111670090465
        0.001159782376531
        0.000000000000000
        0.000000000000000
        0.000000000000000
        0.000000000000000
        0.000000000000000
        0.001079972752241
        0.001123961203219
        0.000000000000000
        0.000000000000000
        0.000000000000000
        0.000000000000000
        0.000000000000000
        0.000000000000000
        0.000000000000000
       -0.000832482497596
       -0.001248028780692
       -0.000841868793595
        0.000000000000000
        0.000000000000000
        0.000000000000000
        0.000000000000000
       -0.000449273626444
       -0.001943301017757
       -0.005014753332065
       -0.007242059948330
       -0.005596993177889
       -0.002515212600222
       -0.000651006591436
        0.000000000000000
        0.000000000000000
       -0.000860721762538
       -0.005171791762778
       -0.018438361597243
       -0.033161426163097
       -0.023294441223294
       -0.008744971181284
       -0.002150658953129
        0.000000000000000
        0.000109452026694
        0.000233352844823
       -0.003503873455135
       -0.030850594966189
       -0.087967193579066
       -0.060912612461233
       -0.018270769595525
       -0.003829963574914
       -0.000524611704119
        0.000622122071483
        0.003607578493620
        0.016499923008472
        0.043761920834651
        0.000012934086756
       -0.043679030738161
       -0.016461376773582
       -0.003590449664924
       -0.000618258471410
        0.000725110655987
        0.005052889586566
        0.024273328034357
        0.076514518277580
        0.087990025419121
        0.015339321583134
       -0.002444495880064
       -0.001431569698850
       -0.000304936035328
        0.000000000000000
        0.003081954853070
        0.012101490579430
        0.029281379280312
        0.033167224675952
        0.012474320417852
        0.001836461211129
       -0.000060498913172
        0.000000000000000
        0.000000000000000
        0.000997542440470
        0.003443882229210
        0.006808972300901
        0.007242933635517
        0.003806807794796
        0.001019635113893
        0.000105211536922
        0.000000000000000
        0.000000000000000
        0.000000000000000
        0.000000000000000
        0.001039941624597
        0.001248152851850
        0.000634775165936
        0.000000000000000
        0.000000000000000
        0.000000000000000
        0.000000000000000
        0.000000000000000
        0.000000000000000
       -0.000862380758410
       -0.001040505549166
        0.000000000000000
        0.000000000000000
        0.000000000000000
        0.000000000000000
        0.000000000000000
       -0.000572405007551
       -0.002393440529758
       -0.005565593232681
       -0.007168148327393
       -0.005000000252424
       -0.001967842387702
        0.000000000000000
        0.000000000000000
        0.000000000000000
       -0.001589793456993
       -0.008017704846416
       -0.023818251089076
       -0.032401065022947
       -0.020060655591068
       -0.007555148513032
       -0.001712846515349
        0.000000000000000
       -0.000120933584975
       -0.001862042023315
       -0.014572113057094
       -0.064841143685582
       -0.096485413504761
       -0.051762385764540
       -0.016580975764797
       -0.003680525321628
        0.000000000000000
        0.000087758203592
        0.000008635324075
       -0.004958052790168
       -0.037676920581192
       -0.103245768106015
       -0.070026531604949
       -0.020600872343633
       -0.004231129453835
       -0.000575259768122
        0.000000000000000
        0.001591771395107
        0.005030097744900
        0.006278419442042
       -0.011246661556306
       -0.025896086835196
       -0.010106310159310
       -0.002458529446626
       -0.000391552052025
        0.000000000000000
        0.001225764358381
        0.004391290730959
        0.008499128631020
        0.006821636605721
       -0.000871907618222
       -0.001737413368874
       -0.000685246063838
        0.000000000000000
        0.000000000000000
        0.000000000000000
        0.001479201563815
        0.002905353822634
        0.002935811215964
        0.001238759888585
        0.000116721951886
       -0.000052353640306
        0.000000000000000
        0.000000000000000
        0.000000000000000
        0.000000000000000
        0.000000000000000
        0.000550630077922
        0.000348251522114
        0.000000000000000
        0.000000000000000
        0.000000000000000
        0.000000000000000
        0.000000000000000
        0.000000000000000
        0.000000000000000
        0.000000000000000
        0.000000000000000
        0.000000000000000
        0.000000000000000
        0.000000000000000
        0.000000000000000
        0.000000000000000
       -0.001374368626464
       -0.003154235116193
       -0.003804254668874
       -0.002377987295359
        0.000000000000000
        0.000000000000000
        0.000000000000000
        0.000000000000000
       -0.001035979849102
       -0.004696042422500
       -0.011485440177609
       -0.014428046582405
       -0.009343926748785
       -0.003388742516584
        0.000000000000000
        0.000000000000000
        0.000000000000000
       -0.001669165208110
       -0.008378891164829
       -0.024891468465536
       -0.034132871657551
       -0.021257693214225
       -0.008012369504397
       -0.001817522788795
        0.000000000000000
        0.000000000000000
       -0.001054869289782
       -0.006135951818651
       -0.021624436937647
       -0.038920848942615
       -0.027356461111189
       -0.010198143943604
       -0.002479733119494
        0.000000000000000
        0.000000000000000
       -0.000090015970923
       -0.001347383399249
       -0.006502634954586
       -0.014853597210199
       -0.014287021011535
       -0.006245418852137
       -0.001674258604222
        0.000000000000000
        0.000000000000000
        0.000000000000000
        0.000411460692730
       -0.000019230587989
       -0.001912618213980
       -0.003142663882233
       -0.001872731218112
       -0.000569612669282
        0.000000000000000
        0.000000000000000
        0.000000000000000
        0.000000000000000
        0.000468310378380
        0.000266260745546
       -0.000191559656377
       -0.000231867435936
        0.000000000000000
        0.000000000000000
        0.000000000000000
        0.000000000000000
        0.000000000000000
        0.000000000000000
        0.000000000000000
        0.000000000000000
        0.000000000000000
        0.000000000000000
        0.000000000000000
        0.000000000000000
        0.000000000000000
        0.000000000000000
        0.000000000000000
        0.000000000000000
        0.000000000000000
        0.000000000000000
        0.000000000000000
        0.000000000000000
        0.000000000000000
        0.000000000000000
        0.000000000000000
       -0.000989299054389
       -0.001124052265454
        0.000000000000000
        0.000000000000000
        0.000000000000000
        0.000000000000000
        0.000000000000000
        0.000000000000000
       -0.001413714225122
       -0.003247536937921
       -0.003929746295015
       -0.002465624756847
        0.000000000000000
        0.000000000000000
        0.000000000000000
        0.000000000000000
       -0.000615900456285
       -0.002566121668181
       -0.005995601888506
       -0.007776559106229
       -0.005453598973041
       -0.002160168018157
        0.000000000000000
        0.000000000000000
        0.000000000000000
       -0.000519638798473
       -0.002262974284508
       -0.005847947250944
       -0.008499827228811
       -0.006606755351949
       -0.002969834847921
       -0.000771698450391
        0.000000000000000
        0.000000000000000
        0.000000000000000
       -0.000934589923064
       -0.002780043886435
       -0.004678878328768
       -0.004135417632348
       -0.002038206845608
       -0.000594326390251
        0.000000000000000
        0.000000000000000
        0.000000000000000
        0.000000000000000
       -0.000629820203635
       -0.001304349913621
       -0.001357557629867
       -0.000722927755871
        0.000000000000000
        0.000000000000000
        0.000000000000000
        0.000000000000000
        0.000000000000000
        0.000000000000000
       -0.000168125290673
       -0.000221427071124
        0.000000000000000
        0.000000000000000
        0.000000000000000
        0.000000000000000
        0.000000000000000
        0.000000000000000
        0.000000000000000
        0.000000000000000
        0.000000000000000
        0.000000000000000
        0.000000000000000
        0.000000000000000
        0.000000000000000
        0.000000000000000
        0.000000000000000
        0.000000000000000
        0.000000000000000
        0.000000000000000
        0.000000000000000
        0.000000000000000
        0.000000000000000
        0.000000000000000
        0.000000000000000
        0.000000000000000
        0.000000000000000
        0.000000000000000
        0.000000000000000
        0.000000000000000
        0.000000000000000
        0.000000000000000
        0.000000000000000
        0.000000000000000
        0.000000000000000
        0.000000000000000
        0.000000000000000
        0.000000000000000
        0.000000000000000
        0.000000000000000
        0.000000000000000
        0.000000000000000
        0.000000000000000
        0.000000000000000
       -0.000948420430867
       -0.001149713003883
        0.000000000000000
        0.000000000000000
        0.000000000000000
        0.000000000000000
        0.000000000000000
        0.000000000000000
        0.000000000000000
       -0.000963382197010
       -0.001464775041013
       -0.001001744584433
        0.000000000000000
        0.000000000000000
        0.000000000000000
        0.000000000000000
        0.000000000000000
        0.000000000000000
        0.000000000000000
       -0.000815523377905
       -0.000727351239000
        0.000000000000000
        0.000000000000000
        0.000000000000000
        0.000000000000000
        0.000000000000000
        0.000000000000000
        0.000000000000000
        0.000000000000000
        0.000000000000000
        0.000000000000000
        0.000000000000000
        0.000000000000000
        0.000000000000000
        0.000000000000000
        0.000000000000000
        0.000000000000000
        0.000000000000000
        0.000000000000000
        0.000000000000000
        0.000000000000000
        0.000000000000000
        0.000000000000000
        0.000000000000000
        0.000000000000000
        0.000000000000000
        0.000000000000000
        0.000000000000000
        0.000000000000000
        0.000000000000000
        0.000000000000000
END_DATAGRID_3D
END_BLOCK_DATAGRID_3D
