ATOMS
         C    7.558905    7.558905    7.558905
         H    8.755769    8.755769    8.755769
         H    6.362040    6.362040    8.755769
         H    8.755769    6.362040    6.362040
         H    6.362040    8.755769    6.362040
BEGIN_BLOCK_DATAGRID_3D
units: coords = b, function = sqrt(b^-3)
BEGIN_DATAGRID_3D_function
      9      9      9
0.0 0.0 0.0
   15.117809    0.000000    0.000000
    0.000000   15.117809    0.000000
    0.000000    0.000000   15.117809
        0.000000000000000
        0.000000000000000
        0.000000000000000
        0.000000000000000
        0.000000000000000
        0.000000000000000
        0.000000000000000
        0.000000000000000
        0.000000000000000
        0.000000000000000
        0.000000000000000
        0.000000000000000
        0.000000000000000
        0.000000000000000
        0.000000000000000
        0.000000000000000
        0.000000000000000
        0.000000000000000
        0.000000000000000
        0.000000000000000
        0.000000000000000
        0.000000000000000
        0.000000000000000
        0.000000000000000
        0.000000000000000
        0.000000000000000
        0.000000000000000
        0.000000000000000
        0.000000000000000
        0.000000000000000
        0.000000000000000
       -0.001189689129391
       -0.001150451275455
        0.000000000000000
        0.000000000000000
        0.000000000000000
        0.000000000000000
        0.000000000000000
        0.000000000000000
       -0.000712415817190
       -0.001387487412129
       -0.001148843624696
        0.000000000000000
        0.000000000000000
        0.000000000000000
        0.000000000000000
        0.000000000000000
        0.000000000000000
       -0.000436411552817
       -0.000671745080591
        0.000000000000000
        0.000000000000000
        0.000000000000000
        0.000000000000000
        0.000000000000000
        0.000000000000000
        0.000000000000000
        0.000000000000000
        0.000000000000000
        0.000000000000000
        0.000000000000000
        0.000000000000000
        0.000000000000000
        0.000000000000000
        0.000000000000000
        0.000000000000000
        0.000000000000000
        0.000000000000000
        0.000000000000000
        0.000000000000000
        0.000000000000000
        0.000000000000000
        0.000000000000000
        0.000000000000000
        0.000000000000000
        0.000000000000000
        0.000000000000000
        0.000000000000000
        0.000000000000000
        0.000000000000000
        0.000000000000000
        0.000000000000000
        0.000000000000000
        0.000000000000000
        0.000000000000000
        0.000000000000000
        0.000000000000000
        0.000000000000000
        0.000000000000000
        0.000000000000000
        0.000000000000000
        0.000000000000000
        0.000000000000000
        0.000000000000000
       -0.001246355361842
       -0.001251446909218
        0.000000000000000
        0.000000000000000
        0.000000000000000
        0.000000000000000
        0.000000000000000
        0.000000000000000
       -0.002127635794283
       -0.004211600328802
       -0.004206537677252
       -0.002125830539296
        0.000000000000000
        0.000000000000000
        0.000000000000000
        0.000000000000000
       -0.001140757613994
       -0.004193866876878
       -0.008000430510377
       -0.007801045021686
       -0.004055701095739
       -0.001168530608077
        0.000000000000000
        0.000000000000000
       -0.000108602276989
       -0.001109725358784
       -0.004219627277062
       -0.008051409389009
       -0.007576065537737
       -0.003844018712778
       -0.001112961696755
        0.000000000000000
        0.000000000000000
        0.000024713045517
       -0.000299460157421
       -0.001789622077586
       -0.003797733076203
       -0.003607509453479
       -0.001791426477002
        0.000000000000000
        0.000000000000000
        0.000000000000000
        0.000000000000000
        0.000105883019031
       -0.000151125767218
       -0.000746103451226
       -0.000806253855135
        0.000000000000000
        0.000000000000000
        0.000000000000000
        0.000000000000000
        0.000000000000000
        0.000000000000000
        0.000105854551498
        0.000022857855420
        0.000000000000000
        0.000000000000000
        0.000000000000000
        0.000000000000000
        0.000000000000000
        0.000000000000000
        0.000000000000000
        0.000000000000000
        0.000000000000000
        0.000000000000000
        0.000000000000000
        0.000000000000000
        0.000000000000000
        0.000000000000000
        0.000000000000000
        0.000000000000000
        0.000000000000000
        0.000000000000000
        0.000000000000000
        0.000000000000000
        0.000000000000000
        0.000000000000000
        0.000000000000000
        0.000000000000000
        0.000000000000000
       -0.002060772271816
       -0.004115968203793
       -0.004135541811211
       -0.002095930613666
        0.000000000000000
        0.000000000000000
        0.000000000000000
        0.000000000000000
       -0.001827323105784
       -0.007464389484106
       -0.015484750706048
       -0.015734229652407
       -0.007669108390008
       -0.002021045591799
        0.000000000000000
        0.000000000000000
       -0.000247763196103
       -0.003155347722999
       -0.014762084117839
       -0.035531722713758
       -0.035707673769757
       -0.015051674103341
       -0.003808016330400
        0.000000000000000
        0.000000000000000
        0.000168649692735
       -0.001794416513402
       -0.013588214205667
       -0.036866919654010
       -0.032798112063513
       -0.013667400902428
       -0.003511795259361
        0.000000000000000
        0.000000000000000
        0.000650695036367
        0.001223009003907
       -0.001371551900126
       -0.010866641747439
       -0.011543099267617
       -0.005715997019973
       -0.001559815545773
        0.000000000000000
        0.000000000000000
        0.000506490363374
        0.001463764243708
        0.001897086507839
        0.000007670827443
       -0.001414358431880
       -0.000998746652346
        0.000000000000000
        0.000000000000000
        0.000000000000000
        0.000000000000000
        0.000579663429778
        0.000972369030902
        0.000765005191294
        0.000249033493785
        0.000000000000000
        0.000000000000000
        0.000000000000000
        0.000000000000000
        0.000000000000000
        0.000000000000000
        0.000000000000000
        0.000000000000000
        0.000000000000000
        0.000000000000000
        0.000000000000000
        0.000000000000000
        0.000000000000000
        0.000000000000000
        0.000000000000000
        0.000000000000000
       -0.001106506096533
       -0.001084959438182
        0.000000000000000
        0.000000000000000
        0.000000000000000
        0.000000000000000
        0.000000000000000
       -0.000993785474291
       -0.003847691546115
       -0.007536783496272
       -0.007473819420930
       -0.003924490716550
       -0.001135530701021
        0.000000000000000
        0.000000000000000
       -0.000167647307292
       -0.002805928470938
       -0.013848649255930
       -0.034211950268705
       -0.034890847655948
       -0.014777188417535
       -0.003747796841665
        0.000000000000000
        0.000000000000000
        0.000427295236258
       -0.002572992558637
       -0.027860338506328
       -0.100291908207678
       -0.106056639373063
       -0.032874680177367
       -0.006660881835622
       -0.000922207210092
        0.000399852542990
        0.001976416105090
        0.004039214043631
       -0.014489454590793
       -0.097795539169673
       -0.087498508766404
       -0.028230429935771
       -0.005967225515104
       -0.000859734630863
        0.000439836074705
        0.002588402881120
        0.009549769333108
        0.020216013357687
       -0.001737538203490
       -0.015251661029596
       -0.008388343326086
       -0.002410551189299
        0.000000000000000
        0.000000000000000
        0.001606450753083
        0.005572237586716
        0.011551605626360
        0.009986924766937
        0.002871040969481
       -0.000210365984338
       -0.000299355176140
        0.000000000000000
        0.000000000000000
        0.000548463916495
        0.001779881458396
        0.003388331353710
        0.003528451262736
        0.001854503973555
        0.000524464481599
        0.000000000000000
        0.000000000000000
        0.000000000000000
        0.000000000000000
        0.000000000000000
        0.000599636003882
        0.000643277552592
        0.000000000000000
        0.000000000000000
        0.000000000000000
        0.000000000000000
        0.000000000000000
        0.000000000000000
        0.000000000000000
       -0.000590436437372
       -0.001222301305773
       -0.001049198394076
        0.000000000000000
        0.000000000000000
        0.000000000000000
        0.000000000000000
       -0.000016223389162
       -0.000762243433623
       -0.003448966447950
       -0.007092856315291
       -0.006941999312080
       -0.003601105876372
       -0.001059567964172
        0.000000000000000
        0.000000000000000
        0.000420534703994
       -0.000683966026472
       -0.010488635483336
       -0.032477585080427
       -0.030372875575945
       -0.012934631862647
       -0.003364491720643
        0.000000000000000
        0.000438659976931
        0.002283553173969
        0.005819068935656
       -0.007536509319400
       -0.086151478812783
       -0.082300710129358
       -0.027124915431885
       -0.005796764524727
       -0.000843275024622
        0.000819796833125
        0.004753860311157
        0.021742653490654
        0.057666952767274
        0.000017043798713
       -0.057557724945730
       -0.021691859470089
       -0.004731288921771
       -0.000814705602240
        0.000661078925878
        0.004682354327192
        0.021549728717159
        0.067709812011393
        0.086181565303894
        0.022246837666899
       -0.000172474923897
       -0.001136582663757
       -0.000249855473229
        0.000000000000000
        0.002506479039319
        0.009815526221493
        0.024776943141192
        0.032485226028555
        0.016114740111985
        0.003830993115929
        0.000450754530753
        0.000000000000000
        0.000000000000000
        0.000738700629630
        0.002739623406758
        0.005813285439361
        0.007094007610225
        0.004582995548932
        0.001630319525613
        0.000340350502302
        0.000000000000000
        0.000000000000000
        0.000000000000000
        0.000000000000000
        0.000863814192500
        0.001222464799639
        0.000776302273046
        0.000000000000000
        0.000000000000000
        0.000000000000000
        0.000000000000000
        0.000000000000000
        0.000000000000000
       -0.000312905737215
       -0.000533304471689
        0.000000000000000
        0.000000000000000
        0.000000000000000
        0.000000000000000
        0.000000000000000
        0.000128340035697
        0.000088868861719
       -0.000974125876510
       -0.002856734484536
       -0.003025094580969
       -0.001589279681860
        0.000000000000000
        0.000000000000000
        0.000000000000000
        0.000968089038346
        0.002598935802254
        0.002231165712984
       -0.006661849593525
       -0.009325527341542
       -0.005009297468825
       -0.001424510757532
        0.000000000000000
        0.000497892306173
        0.003076933056175
        0.012335565892955
        0.030453439658031
        0.010413031356731
       -0.010120558819971
       -0.007084091522866
       -0.002174193642814
        0.000000000000000
        0.000699886359819
        0.004989491396070
        0.023329583609184
        0.074662757282785
        0.097825625660783
        0.027444636303945
        0.000933039579989
       -0.000966121673380
       -0.000233395866988
        0.000000000000000
        0.004178277677146
        0.018091080675207
        0.053287276767385
        0.091657120060903
        0.055486034987767
        0.011046038041564
        0.001022254594963
       -0.000009883935108
        0.000000000000000
        0.001899223412914
        0.008042424959563
        0.020318500028814
        0.030897460519272
        0.021135857684534
        0.006630637256318
        0.001184976671654
        0.000000000000000
        0.000000000000000
        0.000000000000000
        0.002061923631079
        0.005021259983211
        0.006866845245980
        0.005064712690473
        0.002061942159125
        0.000461783529668
        0.000000000000000
        0.000000000000000
        0.000000000000000
        0.000000000000000
        0.000000000000000
        0.000996709835685
        0.000798706393179
        0.000000000000000
        0.000000000000000
        0.000000000000000
        0.000000000000000
        0.000000000000000
        0.000000000000000
        0.000000000000000
        0.000000000000000
        0.000000000000000
        0.000000000000000
        0.000000000000000
        0.000000000000000
        0.000000000000000
        0.000000000000000
        0.000317080757646
        0.000297337424710
       -0.000251462655209
       -0.000524040758174
        0.000000000000000
        0.000000000000000
        0.000000000000000
        0.000000000000000
        0.000687834656632
        0.002205163091147
        0.003547316646619
        0.001850536587731
       -0.000358396170105
       -0.000662852732757
        0.000000000000000
        0.000000000000000
        0.000000000000000
        0.001923844755061
        0.006948164385063
        0.015154323239470
        0.014191716920851
        0.005088612895556
        0.000496333566810
       -0.000164050387898
        0.000000000000000
        0.000000000000000
        0.002758364050578
        0.010925976708423
        0.027876521863523
        0.036874560602138
        0.018539976599553
        0.004563762155709
        0.000598058069471
        0.000000000000000
        0.000000000000000
        0.001979339301726
        0.008391844211623
        0.021231934890723
        0.032217232964324
        0.021952683798342
        0.006905122942123
        0.001245196160389
        0.000000000000000
        0.000000000000000
        0.000000000000000
        0.003494058361448
        0.009241936754964
        0.013630222182739
        0.010300895637376
        0.004011837531511
        0.000832065150389
        0.000000000000000
        0.000000000000000
        0.000000000000000
        0.000000000000000
        0.002336465413746
        0.003603237634644
        0.002868442548666
        0.001201923456349
        0.000000000000000
        0.000000000000000
        0.000000000000000
        0.000000000000000
        0.000000000000000
        0.000000000000000
        0.000000000000000
        0.000000000000000
        0.000000000000000
        0.000000000000000
        0.000000000000000
        0.000000000000000
        0.000000000000000
        0.000000000000000
        0.000000000000000
        0.000000000000000
        0.000000000000000
        0.000000000000000
        0.000000000000000
        0.000000000000000
        0.000000000000000
        0.000000000000000
        0.000000000000000
        0.000242421075552
        0.000168587622489
        0.000000000000000
        0.000000000000000
        0.000000000000000
        0.000000000000000
        0.000000000000000
        0.000000000000000
        0.000790861168393
        0.001420832222830
        0.001259645987311
        0.000531246590745
        0.000000000000000
        0.000000000000000
        0.000000000000000
        0.000000000000000
        0.000652090906675
        0.002168210477536
        0.004203827554785
        0.004469449854403
        0.002436918846065
        0.000726611276742
        0.000000000000000
        0.000000000000000
        0.000000000000000
        0.000831079517458
        0.003087105331919
        0.006583946268473
        0.008052560683942
        0.005217061774589
        0.001873232362018
        0.000393744234886
        0.000000000000000
        0.000000000000000
        0.000000000000000
        0.002208895770782
        0.005367435313974
        0.007330492260085
        0.005391938291230
        0.002193152538313
        0.000494783436724
        0.000000000000000
        0.000000000000000
        0.000000000000000
        0.000000000000000
        0.002403328936212
        0.003698869759653
        0.002939438414706
        0.001231823381979
        0.000000000000000
        0.000000000000000
        0.000000000000000
        0.000000000000000
        0.000000000000000
        0.000000000000000
        0.001055121974021
        0.000903726978586
        0.000000000000000
        0.000000000000000
        0.000000000000000
        0.000000000000000
        0.000000000000000
        0.000000000000000
        0.000000000000000
        0.000000000000000
        0.000000000000000
        0.000000000000000
        0.000000000000000
        0.000000000000000
        0.000000000000000
        0.000000000000000
        0.000000000000000
        0.000000000000000
        0.000000000000000
        0.000000000000000
        0.000000000000000
        0.000000000000000
        0.000000000000000
        0.000000000000000
        0.000000000000000
        0.000000000000000
        0.000000000000000
        0.000000000000000
        0.000000000000000
        0.000000000000000
        0.000000000000000
        0.000000000000000
        0.000000000000000
        0.000000000000000
        0.000000000000000
        0.000000000000000
        0.000000000000000
        0.000000000000000
        0.000000000000000
        0.000000000000000
        0.000000000000000
        0.000000000000000
        0.000000000000000
        0.000000000000000
        0.000723141819484
        0.000781718161494
        0.000000000000000
        0.000000000000000
        0.000000000000000
        0.000000000000000
        0.000000000000000
        0.000000000000000
        0.000000000000000
        0.000985793572318
        0.001387650905995
        0.000875947503665
        0.000000000000000
        0.000000000000000
        0.000000000000000
        0.000000000000000
        0.000000000000000
        0.000000000000000
        0.000000000000000
        0.001079892868543
        0.000864198230453
        0.000000000000000
        0.000000000000000
        0.000000000000000
        0.000000000000000
        0.000000000000000
        0.000000000000000
        0.000000000000000
        0.000000000000000
        0.000000000000000
        0.000000000000000
        0.000000000000000
        0.000000000000000
        0.000000000000000
        0.000000000000000
        0.000000000000000
        0.000000000000000
        0.000000000000000
        0.000000000000000
        0.000000000000000
        0.000000000000000
        0.000000000000000
        0.000000000000000
        0.000000000000000
        0.000000000000000
        0.000000000000000
        0.000000000000000
        0.000000000000000
        0.000000000000000
        0.000000000000000
        0.000000000000000
END_DATAGRID_3D
END_BLOCK_DATAGRID_3D
