ATOMS
         C    7.558905    7.558905    7.558905
         H    8.755769    8.755769    8.755769
         H    6.362040    6.362040    8.755769
         H    8.755769    6.362040    6.362040
         H    6.362040    8.755769    6.362040
BEGIN_BLOCK_DATAGRID_3D
units: coords = b, function = 1/hbar/H*b^-2
BEGIN_DATAGRID_3D_function
      9      9      9
0.0 0.0 0.0
   15.117809    0.000000    0.000000
    0.000000   15.117809    0.000000
    0.000000    0.000000   15.117809
        0.000000000000000
        0.000000000000000
        0.000000000000000
        0.000000000000000
        0.000000000000000
        0.000000000000000
        0.000000000000000
        0.000000000000000
        0.000000000000000
        0.000000000000000
        0.000000000000000
        0.000000000000000
        0.000000000000000
        0.000000000000000
        0.000000000000000
        0.000000000000000
        0.000000000000000
        0.000000000000000
        0.000000000000000
        0.000000000000000
        0.000000000000000
        0.000000000000000
        0.000000000000000
        0.000000000000000
        0.000000000000000
        0.000000000000000
        0.000000000000000
        0.000000000000000
        0.000000000000000
        0.000000000000000
        0.000000000000000
       -0.000000000082174
        0.000000000056296
        0.000000000000000
        0.000000000000000
        0.000000000000000
        0.000000000000000
        0.000000000000000
        0.000000000000000
       -0.000000000033429
       -0.000000000002866
        0.000000000032736
        0.000000000000000
        0.000000000000000
        0.000000000000000
        0.000000000000000
        0.000000000000000
        0.000000000000000
       -0.000000000058404
        0.000000000081481
        0.000000000000000
        0.000000000000000
        0.000000000000000
        0.000000000000000
        0.000000000000000
        0.000000000000000
        0.000000000000000
        0.000000000000000
        0.000000000000000
        0.000000000000000
        0.000000000000000
        0.000000000000000
        0.000000000000000
        0.000000000000000
        0.000000000000000
        0.000000000000000
        0.000000000000000
        0.000000000000000
        0.000000000000000
        0.000000000000000
        0.000000000000000
        0.000000000000000
        0.000000000000000
        0.000000000000000
        0.000000000000000
        0.000000000000000
        0.000000000000000
        0.000000000000000
        0.000000000000000
        0.000000000000000
        0.000000000000000
        0.000000000000000
        0.000000000000000
        0.000000000000000
        0.000000000000000
        0.000000000000000
        0.000000000000000
        0.000000000000000
        0.000000000000000
        0.000000000000000
        0.000000000000000
        0.000000000000000
        0.000000000000000
        0.000000000000000
       -0.000000000062125
        0.000000000059023
        0.000000000000000
        0.000000000000000
        0.000000000000000
        0.000000000000000
        0.000000000000000
        0.000000000000000
       -0.000000000164209
        0.000000000034526
       -0.000000000027903
        0.000000000104820
        0.000000000000000
        0.000000000000000
        0.000000000000000
        0.000000000000000
       -0.000000000097843
       -0.000000000311077
       -0.000000000839566
        0.000000000479233
        0.000000000437366
       -0.000000000032224
        0.000000000000000
        0.000000000000000
        0.000000000015396
       -0.000000000140682
       -0.000000001609623
        0.000000000031013
        0.000000001617752
        0.000000000147022
       -0.000000000013223
        0.000000000000000
        0.000000000000000
        0.000000000034251
       -0.000000000439935
       -0.000000000474251
        0.000000000846767
        0.000000000315839
        0.000000000094567
        0.000000000000000
        0.000000000000000
        0.000000000000000
        0.000000000000000
       -0.000000000101115
        0.000000000024902
       -0.000000000028141
        0.000000000160915
        0.000000000000000
        0.000000000000000
        0.000000000000000
        0.000000000000000
        0.000000000000000
        0.000000000000000
       -0.000000000057001
        0.000000000064242
        0.000000000000000
        0.000000000000000
        0.000000000000000
        0.000000000000000
        0.000000000000000
        0.000000000000000
        0.000000000000000
        0.000000000000000
        0.000000000000000
        0.000000000000000
        0.000000000000000
        0.000000000000000
        0.000000000000000
        0.000000000000000
        0.000000000000000
        0.000000000000000
        0.000000000000000
        0.000000000000000
        0.000000000000000
        0.000000000000000
        0.000000000000000
        0.000000000000000
        0.000000000000000
        0.000000000000000
        0.000000000000000
       -0.000000000114789
       -0.000000000064432
        0.000000000053908
        0.000000000062528
        0.000000000000000
        0.000000000000000
        0.000000000000000
        0.000000000000000
       -0.000000000218450
        0.000000000035051
        0.000000000343440
       -0.000000000602041
       -0.000000000108005
        0.000000000028039
        0.000000000000000
        0.000000000000000
        0.000000000025099
       -0.000000000540166
        0.000000007187220
        0.000000013327343
       -0.000000008977224
       -0.000000008182801
        0.000000000535070
        0.000000000000000
        0.000000000000000
       -0.000000000222908
        0.000000003050630
        0.000000031529236
       -0.000000000633533
       -0.000000031655073
       -0.000000003060472
        0.000000000229836
        0.000000000000000
        0.000000000000000
       -0.000000000535498
        0.000000008217121
        0.000000009349156
       -0.000000013419175
       -0.000000007217862
        0.000000000542906
       -0.000000000027838
        0.000000000000000
        0.000000000000000
       -0.000000000026214
        0.000000000100389
        0.000000000653090
       -0.000000000349565
       -0.000000000034354
        0.000000000207970
        0.000000000000000
        0.000000000000000
        0.000000000000000
        0.000000000000000
       -0.000000000060939
       -0.000000000056205
        0.000000000070425
        0.000000000111801
        0.000000000000000
        0.000000000000000
        0.000000000000000
        0.000000000000000
        0.000000000000000
        0.000000000000000
        0.000000000000000
        0.000000000000000
        0.000000000000000
        0.000000000000000
        0.000000000000000
        0.000000000000000
        0.000000000000000
        0.000000000000000
        0.000000000000000
        0.000000000000000
       -0.000000000032521
        0.000000000002598
        0.000000000000000
        0.000000000000000
        0.000000000000000
        0.000000000000000
        0.000000000000000
       -0.000000000072399
       -0.000000000154881
        0.000000000084982
       -0.000000000093944
        0.000000000094537
       -0.000000000000328
        0.000000000000000
        0.000000000000000
       -0.000000000028360
       -0.000000000123882
        0.000000001442926
       -0.000000000882889
       -0.000000002571976
       -0.000000000403525
        0.000000000028620
        0.000000000000000
        0.000000000000000
       -0.000000000496965
        0.000000006389210
        0.000000022976845
       -0.000000037830423
       -0.000000072852128
       -0.000000004638212
        0.000000000351992
        0.000000000003413
        0.000000000005939
       -0.000000001564320
        0.000000026900251
        0.000000128191377
       -0.000000002197544
       -0.000000129744686
       -0.000000026921541
        0.000000001577680
       -0.000000000005020
       -0.000000000003428
       -0.000000000342369
        0.000000004701318
        0.000000071799726
        0.000000036518196
       -0.000000023221395
       -0.000000006394853
        0.000000000498737
        0.000000000000000
        0.000000000000000
       -0.000000000027287
        0.000000000422669
        0.000000002629122
        0.000000000917822
       -0.000000001438533
        0.000000000120188
        0.000000000026358
        0.000000000000000
        0.000000000000000
        0.000000000000087
       -0.000000000093490
        0.000000000102095
       -0.000000000077995
        0.000000000154787
        0.000000000070181
        0.000000000000000
        0.000000000000000
        0.000000000000000
        0.000000000000000
        0.000000000000000
       -0.000000000002613
        0.000000000033447
        0.000000000000000
        0.000000000000000
        0.000000000000000
        0.000000000000000
        0.000000000000000
        0.000000000000000
        0.000000000000000
        0.000000000002613
       -0.000000000097638
        0.000000000002598
        0.000000000000000
        0.000000000000000
        0.000000000000000
        0.000000000000000
       -0.000000000000087
       -0.000000000118477
        0.000000000065063
       -0.000000000067262
        0.000000000075018
       -0.000000000116537
       -0.000000000000328
        0.000000000000000
        0.000000000000000
       -0.000000000056130
        0.000000000362285
       -0.000000000948325
       -0.000000002474691
       -0.000000000961864
        0.000000000380516
       -0.000000000054621
        0.000000000000000
        0.000000000003428
       -0.000000001007348
        0.000000013804868
       -0.000000038909404
       -0.000000092981669
       -0.000000040039938
        0.000000013831324
       -0.000000000999597
        0.000000000003413
       -0.000000000000000
       -0.000000000000000
       -0.000000000000000
        0.000000000000000
       -0.000000000000000
       -0.000000000000000
        0.000000000000000
        0.000000000000000
       -0.000000000000000
       -0.000000000003428
        0.000000001007348
       -0.000000013804868
        0.000000038909404
        0.000000092981669
        0.000000040039938
       -0.000000013831324
        0.000000000999597
       -0.000000000003413
        0.000000000000000
        0.000000000056130
       -0.000000000362285
        0.000000000948325
        0.000000002474691
        0.000000000961864
       -0.000000000380516
        0.000000000054621
        0.000000000000000
        0.000000000000000
        0.000000000000087
        0.000000000118477
       -0.000000000065063
        0.000000000067262
       -0.000000000075018
        0.000000000116537
        0.000000000000328
        0.000000000000000
        0.000000000000000
        0.000000000000000
        0.000000000000000
       -0.000000000002613
        0.000000000097638
       -0.000000000002598
        0.000000000000000
        0.000000000000000
        0.000000000000000
        0.000000000000000
        0.000000000000000
        0.000000000000000
        0.000000000002613
       -0.000000000033447
        0.000000000000000
        0.000000000000000
        0.000000000000000
        0.000000000000000
        0.000000000000000
       -0.000000000000087
        0.000000000093490
       -0.000000000102095
        0.000000000077995
       -0.000000000154787
       -0.000000000070181
        0.000000000000000
        0.000000000000000
        0.000000000000000
        0.000000000027287
       -0.000000000422669
       -0.000000002629122
       -0.000000000917822
        0.000000001438533
       -0.000000000120188
       -0.000000000026358
        0.000000000000000
        0.000000000003428
        0.000000000342369
       -0.000000004701318
       -0.000000071799726
       -0.000000036518196
        0.000000023221395
        0.000000006394853
       -0.000000000498737
        0.000000000000000
       -0.000000000005939
        0.000000001564320
       -0.000000026900251
       -0.000000128191377
        0.000000002197544
        0.000000129744686
        0.000000026921541
       -0.000000001577680
        0.000000000005020
        0.000000000000000
        0.000000000496965
       -0.000000006389210
       -0.000000022976845
        0.000000037830423
        0.000000072852128
        0.000000004638212
       -0.000000000351992
       -0.000000000003413
        0.000000000000000
        0.000000000028360
        0.000000000123882
       -0.000000001442926
        0.000000000882889
        0.000000002571976
        0.000000000403525
       -0.000000000028620
        0.000000000000000
        0.000000000000000
        0.000000000000000
        0.000000000072399
        0.000000000154881
       -0.000000000084982
        0.000000000093944
       -0.000000000094537
        0.000000000000328
        0.000000000000000
        0.000000000000000
        0.000000000000000
        0.000000000000000
        0.000000000000000
        0.000000000032521
       -0.000000000002598
        0.000000000000000
        0.000000000000000
        0.000000000000000
        0.000000000000000
        0.000000000000000
        0.000000000000000
        0.000000000000000
        0.000000000000000
        0.000000000000000
        0.000000000000000
        0.000000000000000
        0.000000000000000
        0.000000000000000
        0.000000000000000
        0.000000000060939
        0.000000000056205
       -0.000000000070425
       -0.000000000111801
        0.000000000000000
        0.000000000000000
        0.000000000000000
        0.000000000000000
        0.000000000026214
       -0.000000000100389
       -0.000000000653090
        0.000000000349565
        0.000000000034354
       -0.000000000207970
        0.000000000000000
        0.000000000000000
        0.000000000000000
        0.000000000535498
       -0.000000008217121
       -0.000000009349156
        0.000000013419175
        0.000000007217862
       -0.000000000542906
        0.000000000027838
        0.000000000000000
        0.000000000000000
        0.000000000222908
       -0.000000003050630
       -0.000000031529236
        0.000000000633533
        0.000000031655073
        0.000000003060472
       -0.000000000229836
        0.000000000000000
        0.000000000000000
       -0.000000000025099
        0.000000000540166
       -0.000000007187220
       -0.000000013327343
        0.000000008977224
        0.000000008182801
       -0.000000000535070
        0.000000000000000
        0.000000000000000
        0.000000000000000
        0.000000000218450
       -0.000000000035051
       -0.000000000343440
        0.000000000602041
        0.000000000108005
       -0.000000000028039
        0.000000000000000
        0.000000000000000
        0.000000000000000
        0.000000000000000
        0.000000000114789
        0.000000000064432
       -0.000000000053908
       -0.000000000062528
        0.000000000000000
        0.000000000000000
        0.000000000000000
        0.000000000000000
        0.000000000000000
        0.000000000000000
        0.000000000000000
        0.000000000000000
        0.000000000000000
        0.000000000000000
        0.000000000000000
        0.000000000000000
        0.000000000000000
        0.000000000000000
        0.000000000000000
        0.000000000000000
        0.000000000000000
        0.000000000000000
        0.000000000000000
        0.000000000000000
        0.000000000000000
        0.000000000000000
        0.000000000000000
        0.000000000057001
       -0.000000000064242
        0.000000000000000
        0.000000000000000
        0.000000000000000
        0.000000000000000
        0.000000000000000
        0.000000000000000
        0.000000000101115
       -0.000000000024902
        0.000000000028141
       -0.000000000160915
        0.000000000000000
        0.000000000000000
        0.000000000000000
        0.000000000000000
       -0.000000000034251
        0.000000000439935
        0.000000000474251
       -0.000000000846767
       -0.000000000315839
       -0.000000000094567
        0.000000000000000
        0.000000000000000
        0.000000000000000
       -0.000000000015396
        0.000000000140682
        0.000000001609623
       -0.000000000031013
       -0.000000001617752
       -0.000000000147022
        0.000000000013223
        0.000000000000000
        0.000000000000000
        0.000000000000000
        0.000000000097843
        0.000000000311077
        0.000000000839566
       -0.000000000479233
       -0.000000000437366
        0.000000000032224
        0.000000000000000
        0.000000000000000
        0.000000000000000
        0.000000000000000
        0.000000000164209
       -0.000000000034526
        0.000000000027903
       -0.000000000104820
        0.000000000000000
        0.000000000000000
        0.000000000000000
        0.000000000000000
        0.000000000000000
        0.000000000000000
        0.000000000062125
       -0.000000000059023
        0.000000000000000
        0.000000000000000
        0.000000000000000
        0.000000000000000
        0.000000000000000
        0.000000000000000
        0.000000000000000
        0.000000000000000
        0.000000000000000
        0.000000000000000
        0.000000000000000
        0.000000000000000
        0.000000000000000
        0.000000000000000
        0.000000000000000
        0.000000000000000
        0.000000000000000
        0.000000000000000
        0.000000000000000
        0.000000000000000
        0.000000000000000
        0.000000000000000
        0.000000000000000
        0.000000000000000
        0.000000000000000
        0.000000000000000
        0.000000000000000
        0.000000000000000
        0.000000000000000
        0.000000000000000
        0.000000000000000
        0.000000000000000
        0.000000000000000
        0.000000000000000
        0.000000000000000
        0.000000000000000
        0.000000000000000
        0.000000000000000
        0.000000000000000
        0.000000000000000
        0.000000000000000
        0.000000000000000
        0.000000000058404
       -0.000000000081481
        0.000000000000000
        0.000000000000000
        0.000000000000000
        0.000000000000000
        0.000000000000000
        0.000000000000000
        0.000000000000000
        0.000000000033429
        0.000000000002866
       -0.000000000032736
        0.000000000000000
        0.000000000000000
        0.000000000000000
        0.000000000000000
        0.000000000000000
        0.000000000000000
        0.000000000000000
        0.000000000082174
       -0.000000000056296
        0.000000000000000
        0.000000000000000
        0.000000000000000
        0.000000000000000
        0.000000000000000
        0.000000000000000
        0.000000000000000
        0.000000000000000
        0.000000000000000
        0.000000000000000
        0.000000000000000
        0.000000000000000
        0.000000000000000
        0.000000000000000
        0.000000000000000
        0.000000000000000
        0.000000000000000
        0.000000000000000
        0.000000000000000
        0.000000000000000
        0.000000000000000
        0.000000000000000
        0.000000000000000
        0.000000000000000
        0.000000000000000
        0.000000000000000
        0.000000000000000
        0.000000000000000
        0.000000000000000
        0.000000000000000
END_DATAGRID_3D
END_BLOCK_DATAGRID_3D
