ATOMS
         C    7.558905    7.558905    7.558905
         H    8.755769    8.755769    8.755769
         H    6.362040    6.362040    8.755769
         H    8.755769    6.362040    6.362040
         H    6.362040    8.755769    6.362040
BEGIN_BLOCK_DATAGRID_3D
units: coords = b, function = sqrt(b^-3)
BEGIN_DATAGRID_3D_function
      9      9      9
0.0 0.0 0.0
   15.117809    0.000000    0.000000
    0.000000   15.117809    0.000000
    0.000000    0.000000   15.117809
        0.000000000000000
        0.000000000000000
        0.000000000000000
        0.000000000000000
        0.000000000000000
        0.000000000000000
        0.000000000000000
        0.000000000000000
        0.000000000000000
        0.000000000000000
        0.000000000000000
        0.000000000000000
        0.000000000000000
        0.000000000000000
        0.000000000000000
        0.000000000000000
        0.000000000000000
        0.000000000000000
        0.000000000000000
        0.000000000000000
        0.000000000000000
        0.000000000000000
        0.000000000000000
        0.000000000000000
        0.000000000000000
        0.000000000000000
        0.000000000000000
        0.000000000000000
        0.000000000000000
        0.000000000000000
        0.000000000000000
       -0.000241102904027
       -0.000234728614721
        0.000000000000000
        0.000000000000000
        0.000000000000000
        0.000000000000000
        0.000000000000000
        0.000000000000000
       -0.000143330670529
       -0.000281125039791
       -0.000234399859208
        0.000000000000000
        0.000000000000000
        0.000000000000000
        0.000000000000000
        0.000000000000000
        0.000000000000000
       -0.000087801065188
       -0.000136059027957
        0.000000000000000
        0.000000000000000
        0.000000000000000
        0.000000000000000
        0.000000000000000
        0.000000000000000
        0.000000000000000
        0.000000000000000
        0.000000000000000
        0.000000000000000
        0.000000000000000
        0.000000000000000
        0.000000000000000
        0.000000000000000
        0.000000000000000
        0.000000000000000
        0.000000000000000
        0.000000000000000
        0.000000000000000
        0.000000000000000
        0.000000000000000
        0.000000000000000
        0.000000000000000
        0.000000000000000
        0.000000000000000
        0.000000000000000
        0.000000000000000
        0.000000000000000
        0.000000000000000
        0.000000000000000
        0.000000000000000
        0.000000000000000
        0.000000000000000
        0.000000000000000
        0.000000000000000
        0.000000000000000
        0.000000000000000
        0.000000000000000
        0.000000000000000
        0.000000000000000
        0.000000000000000
        0.000000000000000
        0.000000000000000
        0.000000000000000
       -0.000252587434578
       -0.000255336771798
        0.000000000000000
        0.000000000000000
        0.000000000000000
        0.000000000000000
        0.000000000000000
        0.000000000000000
       -0.000428051018748
       -0.000853334705622
       -0.000858464694328
       -0.000436891157037
        0.000000000000000
        0.000000000000000
        0.000000000000000
        0.000000000000000
       -0.000227840205625
       -0.000843649435698
       -0.001621009422643
       -0.001592003283709
       -0.000833613674628
       -0.000241881385664
        0.000000000000000
        0.000000000000000
       -0.000021536818896
       -0.000221634446219
       -0.000848833731521
       -0.001631325774298
       -0.001546075378112
       -0.000790097189823
       -0.000230381103770
        0.000000000000000
        0.000000000000000
        0.000004896924268
       -0.000059826744322
       -0.000360027910180
       -0.000769478872072
       -0.000736200560507
       -0.000368165448105
        0.000000000000000
        0.000000000000000
        0.000000000000000
        0.000000000000000
        0.000021137811547
       -0.000030422587593
       -0.000151190271972
       -0.000164508077848
        0.000000000000000
        0.000000000000000
        0.000000000000000
        0.000000000000000
        0.000000000000000
        0.000000000000000
        0.000021290920695
        0.000004626753002
        0.000000000000000
        0.000000000000000
        0.000000000000000
        0.000000000000000
        0.000000000000000
        0.000000000000000
        0.000000000000000
        0.000000000000000
        0.000000000000000
        0.000000000000000
        0.000000000000000
        0.000000000000000
        0.000000000000000
        0.000000000000000
        0.000000000000000
        0.000000000000000
        0.000000000000000
        0.000000000000000
        0.000000000000000
        0.000000000000000
        0.000000000000000
        0.000000000000000
        0.000000000000000
        0.000000000000000
        0.000000000000000
       -0.000414599927487
       -0.000833960046404
       -0.000843976985034
       -0.000430746422603
        0.000000000000000
        0.000000000000000
        0.000000000000000
        0.000000000000000
       -0.000364978113969
       -0.001501612093299
       -0.003137512628870
       -0.003210959863016
       -0.001576251752161
       -0.000418340115759
        0.000000000000000
        0.000000000000000
       -0.000049139164033
       -0.000630195680325
       -0.002969946592176
       -0.007199562500573
       -0.007286796475517
       -0.003093352238287
       -0.000788280937868
        0.000000000000000
        0.000000000000000
        0.000033417404568
       -0.000358472708055
       -0.002734058037523
       -0.007469937514132
       -0.006692742693851
       -0.002808918852562
       -0.000726952952176
        0.000000000000000
        0.000000000000000
        0.000128975697665
        0.000244152931439
       -0.000276265531574
       -0.002201949296436
       -0.002355597719060
       -0.001174827549739
       -0.000322871746066
        0.000000000000000
        0.000000000000000
        0.000100400341469
        0.000292253679657
        0.000381467666134
        0.000001426743024
       -0.000288691360790
       -0.000205264291002
        0.000000000000000
        0.000000000000000
        0.000000000000000
        0.000000000000000
        0.000115751864873
        0.000195552931521
        0.000154961453350
        0.000050800117283
        0.000000000000000
        0.000000000000000
        0.000000000000000
        0.000000000000000
        0.000000000000000
        0.000000000000000
        0.000000000000000
        0.000000000000000
        0.000000000000000
        0.000000000000000
        0.000000000000000
        0.000000000000000
        0.000000000000000
        0.000000000000000
        0.000000000000000
        0.000000000000000
       -0.000224245453984
       -0.000221366830429
        0.000000000000000
        0.000000000000000
        0.000000000000000
        0.000000000000000
        0.000000000000000
       -0.000198489682380
       -0.000774020395306
       -0.001527075755590
       -0.001525230448693
       -0.000806646522929
       -0.000235050408522
        0.000000000000000
        0.000000000000000
       -0.000033256977397
       -0.000560420043789
       -0.002786208543001
       -0.006932181598865
       -0.007120129585516
       -0.003036942047785
       -0.000775815569322
        0.000000000000000
        0.000000000000000
        0.000084660851612
       -0.000513925926172
       -0.005606840612318
       -0.020322685309397
       -0.021641710723781
       -0.006754473426716
       -0.001379110612089
       -0.000192214320503
        0.000078661356524
        0.000391717165988
        0.000806670555325
       -0.002918246417021
       -0.019815730087984
       -0.017853279432516
       -0.005800727790416
       -0.001235406794129
       -0.000179205095240
        0.000086552773331
        0.000513007712067
        0.001907320613893
        0.004065426358662
       -0.000353427511724
       -0.003112684613271
       -0.001723986430575
       -0.000498997502218
        0.000000000000000
        0.000000000000000
        0.000318436173073
        0.001112687483226
        0.002323325496549
        0.002022982949335
        0.000585593015011
       -0.000043307057498
       -0.000061969790086
        0.000000000000000
        0.000000000000000
        0.000108719813172
        0.000355387115757
        0.000681477796777
        0.000714797476871
        0.000378387619575
        0.000107772773827
        0.000000000000000
        0.000000000000000
        0.000000000000000
        0.000000000000000
        0.000000000000000
        0.000120628382668
        0.000130287493260
        0.000000000000000
        0.000000000000000
        0.000000000000000
        0.000000000000000
        0.000000000000000
        0.000000000000000
        0.000000000000000
       -0.000118791796136
       -0.000247659792632
       -0.000214070483530
        0.000000000000000
        0.000000000000000
        0.000000000000000
        0.000000000000000
       -0.000003224254096
       -0.000152249702675
       -0.000693827174338
       -0.001437129980725
       -0.001416691485410
       -0.000740173112431
       -0.000219329540386
        0.000000000000000
        0.000000000000000
        0.000083348539768
       -0.000136717147314
       -0.002110566244208
       -0.006580692982777
       -0.006197921979383
       -0.002658329537428
       -0.000696461540744
        0.000000000000000
        0.000086300686300
        0.000452591186854
        0.001162176576759
       -0.001519431104490
       -0.017456735760785
       -0.016792973549287
       -0.005573567977441
       -0.001200117164461
       -0.000175777003234
        0.000161316151264
        0.000942132160016
        0.004343291036838
        0.011598077048939
        0.000004766945036
       -0.011746289751466
       -0.004456601642327
       -0.000979610736201
       -0.000169851989850
        0.000130116183485
        0.000928052152599
        0.004304065991916
        0.013620878608279
        0.017458758085891
        0.004536547705472
       -0.000035632828315
       -0.000235303117014
       -0.000052105402194
        0.000000000000000
        0.000496852414249
        0.001960074788334
        0.004983847570108
        0.006581092018115
        0.003287729624212
        0.000787212613200
        0.000093295332265
        0.000000000000000
        0.000000000000000
        0.000146437897694
        0.000547036735696
        0.001169243046161
        0.001437190441157
        0.000935168249537
        0.000335057445890
        0.000070448788114
        0.000000000000000
        0.000000000000000
        0.000000000000000
        0.000000000000000
        0.000173778289673
        0.000247665510266
        0.000158382541620
        0.000000000000000
        0.000000000000000
        0.000000000000000
        0.000000000000000
        0.000000000000000
        0.000000000000000
       -0.000062955206295
       -0.000108019517317
        0.000000000000000
        0.000000000000000
        0.000000000000000
        0.000000000000000
        0.000000000000000
        0.000025439605010
        0.000017713037203
       -0.000196006877645
       -0.000578843292597
       -0.000617358903028
       -0.000326624693681
        0.000000000000000
        0.000000000000000
        0.000000000000000
        0.000191891605578
        0.000518927249199
        0.000448383194888
       -0.001350130282319
       -0.001903141176196
       -0.001029590105901
       -0.000294867108949
        0.000000000000000
        0.000097982028353
        0.000609824301543
        0.002463806306783
        0.006124705075843
        0.002107976470369
       -0.002065944062913
       -0.001455949773905
       -0.000450075015440
        0.000000000000000
        0.000137755513261
        0.000988926173465
        0.004659572013350
        0.015019693920810
        0.019817752413090
        0.005596853588700
        0.000191526984660
       -0.000200013487345
       -0.000048677310188
        0.000000000000000
        0.000828273993750
        0.003612709305263
        0.010720056865049
        0.018570207313336
        0.011320727166523
        0.002269089899617
        0.000211700157435
       -0.000002096744446
        0.000000000000000
        0.000376511600642
        0.001605953461773
        0.004087115045767
        0.006259871927219
        0.004312721502240
        0.001362565808876
        0.000245287007917
        0.000000000000000
        0.000000000000000
        0.000000000000000
        0.000411776595286
        0.001009972731804
        0.001391213367411
        0.001033505211609
        0.000423781588258
        0.000095581472916
        0.000000000000000
        0.000000000000000
        0.000000000000000
        0.000000000000000
        0.000000000000000
        0.000201988548403
        0.000162954274670
        0.000000000000000
        0.000000000000000
        0.000000000000000
        0.000000000000000
        0.000000000000000
        0.000000000000000
        0.000000000000000
        0.000000000000000
        0.000000000000000
        0.000000000000000
        0.000000000000000
        0.000000000000000
        0.000000000000000
        0.000000000000000
        0.000063313600474
        0.000059775200000
       -0.000050982253352
       -0.000106931287402
        0.000000000000000
        0.000000000000000
        0.000000000000000
        0.000000000000000
        0.000136350236011
        0.000440298713112
        0.000713380606168
        0.000374763500909
       -0.000073229717025
       -0.000136240547879
        0.000000000000000
        0.000000000000000
        0.000000000000000
        0.000381352080986
        0.001387461800986
        0.003047974223011
        0.002874801963452
        0.001038049557875
        0.000101930386340
       -0.000033965152969
        0.000000000000000
        0.000000000000000
        0.000546783549449
        0.002181830349076
        0.005607339363424
        0.007470336549471
        0.003782550338681
        0.000937801928333
        0.000123786743698
        0.000000000000000
        0.000000000000000
        0.000392393787278
        0.001675729098309
        0.004270853094943
        0.006527252828928
        0.004479388392241
        0.001418975999377
        0.000257752376463
        0.000000000000000
        0.000000000000000
        0.000000000000000
        0.000697798709858
        0.001858977931888
        0.002761510243631
        0.002101992828032
        0.000824507555843
        0.000172220756535
        0.000000000000000
        0.000000000000000
        0.000000000000000
        0.000000000000000
        0.000470040095784
        0.000730018695591
        0.000585351708439
        0.000247003768469
        0.000000000000000
        0.000000000000000
        0.000000000000000
        0.000000000000000
        0.000000000000000
        0.000000000000000
        0.000000000000000
        0.000000000000000
        0.000000000000000
        0.000000000000000
        0.000000000000000
        0.000000000000000
        0.000000000000000
        0.000000000000000
        0.000000000000000
        0.000000000000000
        0.000000000000000
        0.000000000000000
        0.000000000000000
        0.000000000000000
        0.000000000000000
        0.000000000000000
        0.000000000000000
        0.000048763827043
        0.000034142385961
        0.000000000000000
        0.000000000000000
        0.000000000000000
        0.000000000000000
        0.000000000000000
        0.000000000000000
        0.000157927653800
        0.000285750719114
        0.000255169471970
        0.000108376907729
        0.000000000000000
        0.000000000000000
        0.000000000000000
        0.000000000000000
        0.000129262493913
        0.000432926897283
        0.000845498829311
        0.000905433056346
        0.000497229277054
        0.000149313528252
        0.000000000000000
        0.000000000000000
        0.000000000000000
        0.000164750462494
        0.000616421479241
        0.001324249603344
        0.001631386234730
        0.001064552142239
        0.000384981523281
        0.000081500351498
        0.000000000000000
        0.000000000000000
        0.000000000000000
        0.000441127118531
        0.001079601772196
        0.001485147034464
        0.001100278046624
        0.000450748739957
        0.000102412450058
        0.000000000000000
        0.000000000000000
        0.000000000000000
        0.000000000000000
        0.000483491187044
        0.000749393354809
        0.000599839417734
        0.000253148502903
        0.000000000000000
        0.000000000000000
        0.000000000000000
        0.000000000000000
        0.000000000000000
        0.000000000000000
        0.000213826740555
        0.000184383856727
        0.000000000000000
        0.000000000000000
        0.000000000000000
        0.000000000000000
        0.000000000000000
        0.000000000000000
        0.000000000000000
        0.000000000000000
        0.000000000000000
        0.000000000000000
        0.000000000000000
        0.000000000000000
        0.000000000000000
        0.000000000000000
        0.000000000000000
        0.000000000000000
        0.000000000000000
        0.000000000000000
        0.000000000000000
        0.000000000000000
        0.000000000000000
        0.000000000000000
        0.000000000000000
        0.000000000000000
        0.000000000000000
        0.000000000000000
        0.000000000000000
        0.000000000000000
        0.000000000000000
        0.000000000000000
        0.000000000000000
        0.000000000000000
        0.000000000000000
        0.000000000000000
        0.000000000000000
        0.000000000000000
        0.000000000000000
        0.000000000000000
        0.000000000000000
        0.000000000000000
        0.000000000000000
        0.000000000000000
        0.000145474241562
        0.000158327003899
        0.000000000000000
        0.000000000000000
        0.000000000000000
        0.000000000000000
        0.000000000000000
        0.000000000000000
        0.000000000000000
        0.000198317164067
        0.000281130757425
        0.000178711917298
        0.000000000000000
        0.000000000000000
        0.000000000000000
        0.000000000000000
        0.000000000000000
        0.000000000000000
        0.000000000000000
        0.000218845998446
        0.000176316058963
        0.000000000000000
        0.000000000000000
        0.000000000000000
        0.000000000000000
        0.000000000000000
        0.000000000000000
        0.000000000000000
        0.000000000000000
        0.000000000000000
        0.000000000000000
        0.000000000000000
        0.000000000000000
        0.000000000000000
        0.000000000000000
        0.000000000000000
        0.000000000000000
        0.000000000000000
        0.000000000000000
        0.000000000000000
        0.000000000000000
        0.000000000000000
        0.000000000000000
        0.000000000000000
        0.000000000000000
        0.000000000000000
        0.000000000000000
        0.000000000000000
        0.000000000000000
        0.000000000000000
        0.000000000000000
END_DATAGRID_3D
END_BLOCK_DATAGRID_3D
