ATOMS
         C    7.558905    7.558905    7.558905
         H    8.755769    8.755769    8.755769
         H    6.362040    6.362040    8.755769
         H    8.755769    6.362040    6.362040
         H    6.362040    8.755769    6.362040
BEGIN_BLOCK_DATAGRID_3D
units: coords = b, function = sqrt(b^-3)
BEGIN_DATAGRID_3D_function
      9      9      9
0.0 0.0 0.0
   15.117809    0.000000    0.000000
    0.000000   15.117809    0.000000
    0.000000    0.000000   15.117809
        0.000000000000000
        0.000000000000000
        0.000000000000000
        0.000000000000000
        0.000000000000000
        0.000000000000000
        0.000000000000000
        0.000000000000000
        0.000000000000000
        0.000000000000000
        0.000000000000000
        0.000000000000000
        0.000000000000000
        0.000000000000000
        0.000000000000000
        0.000000000000000
        0.000000000000000
        0.000000000000000
        0.000000000000000
        0.000000000000000
        0.000000000000000
        0.000000000000000
        0.000000000000000
        0.000000000000000
        0.000000000000000
        0.000000000000000
        0.000000000000000
        0.000000000000000
        0.000000000000000
        0.000000000000000
        0.000000000000000
        0.000148382265949
        0.000104072514348
        0.000000000000000
        0.000000000000000
        0.000000000000000
        0.000000000000000
        0.000000000000000
        0.000000000000000
        0.000235537868199
        0.000296766779538
        0.000162118839176
        0.000000000000000
        0.000000000000000
        0.000000000000000
        0.000000000000000
        0.000000000000000
        0.000000000000000
        0.000234565465731
        0.000249761735022
        0.000000000000000
        0.000000000000000
        0.000000000000000
        0.000000000000000
        0.000000000000000
        0.000000000000000
        0.000000000000000
        0.000000000000000
        0.000000000000000
        0.000000000000000
        0.000000000000000
        0.000000000000000
        0.000000000000000
        0.000000000000000
        0.000000000000000
        0.000000000000000
        0.000000000000000
        0.000000000000000
        0.000000000000000
        0.000000000000000
        0.000000000000000
        0.000000000000000
        0.000000000000000
        0.000000000000000
        0.000000000000000
        0.000000000000000
        0.000000000000000
        0.000000000000000
        0.000000000000000
        0.000000000000000
        0.000000000000000
        0.000000000000000
        0.000000000000000
        0.000000000000000
        0.000000000000000
        0.000000000000000
        0.000000000000000
        0.000000000000000
        0.000000000000000
        0.000000000000000
        0.000000000000000
        0.000000000000000
        0.000000000000000
        0.000000000000000
        0.000004659699608
       -0.000008663608718
        0.000000000000000
        0.000000000000000
        0.000000000000000
        0.000000000000000
        0.000000000000000
        0.000000000000000
        0.000168784252281
        0.000185405966123
        0.000080788882252
        0.000009137586976
        0.000000000000000
        0.000000000000000
        0.000000000000000
        0.000000000000000
        0.000348506334619
        0.000738271979574
        0.000844883492042
        0.000470761044553
        0.000128384850511
        0.000017186993199
        0.000000000000000
        0.000000000000000
        0.000211693201773
        0.000751483143622
        0.001537059136926
        0.001722120746650
        0.000982786936027
        0.000302967182510
        0.000046753013152
        0.000000000000000
        0.000000000000000
        0.000223907030841
        0.000795544706742
        0.001574348649942
        0.001678665852497
        0.000931502374492
        0.000277843459741
        0.000000000000000
        0.000000000000000
        0.000000000000000
        0.000000000000000
        0.000418208931172
        0.000846944072059
        0.000875047215524
        0.000460447162604
        0.000000000000000
        0.000000000000000
        0.000000000000000
        0.000000000000000
        0.000000000000000
        0.000000000000000
        0.000252181474299
        0.000257084887352
        0.000000000000000
        0.000000000000000
        0.000000000000000
        0.000000000000000
        0.000000000000000
        0.000000000000000
        0.000000000000000
        0.000000000000000
        0.000000000000000
        0.000000000000000
        0.000000000000000
        0.000000000000000
        0.000000000000000
        0.000000000000000
        0.000000000000000
        0.000000000000000
        0.000000000000000
        0.000000000000000
        0.000000000000000
        0.000000000000000
        0.000000000000000
        0.000000000000000
        0.000000000000000
        0.000000000000000
        0.000000000000000
       -0.000052129246285
       -0.000132793031155
       -0.000157149474161
       -0.000091780231159
        0.000000000000000
        0.000000000000000
        0.000000000000000
        0.000000000000000
        0.000170414077517
        0.000275139616255
        0.000102276199324
       -0.000200172927162
       -0.000185552558809
       -0.000068864848476
        0.000000000000000
        0.000000000000000
        0.000278337976504
        0.001062544271959
        0.002295449836883
        0.002499437705526
        0.000785037140640
        0.000012928707957
       -0.000056022892143
        0.000000000000000
        0.000000000000000
        0.000649413857758
        0.002609119111986
        0.006530646511081
        0.007885830057055
        0.003373520410840
        0.000675950798826
        0.000055583060311
        0.000000000000000
        0.000000000000000
        0.000718152621205
        0.002911531668906
        0.007110251750492
        0.007425646016164
        0.003337652609934
        0.000832538449539
        0.000105402971245
        0.000000000000000
        0.000000000000000
        0.000385042746730
        0.001493663348743
        0.003141005588340
        0.003208481598967
        0.001631987005687
        0.000437224961043
        0.000000000000000
        0.000000000000000
        0.000000000000000
        0.000000000000000
        0.000410351606375
        0.000828177694471
        0.000849622519525
        0.000442566664294
        0.000000000000000
        0.000000000000000
        0.000000000000000
        0.000000000000000
        0.000000000000000
        0.000000000000000
        0.000000000000000
        0.000000000000000
        0.000000000000000
        0.000000000000000
        0.000000000000000
        0.000000000000000
        0.000000000000000
        0.000000000000000
        0.000000000000000
        0.000000000000000
       -0.000128475439788
       -0.000115374254541
        0.000000000000000
        0.000000000000000
        0.000000000000000
        0.000000000000000
        0.000000000000000
       -0.000133530895616
       -0.000405277983553
       -0.000697832605867
       -0.000625880135475
       -0.000314509165517
       -0.000095001306609
        0.000000000000000
        0.000000000000000
        0.000017497473177
       -0.000083413307505
       -0.000722165200992
       -0.001891882619552
       -0.001952210347501
       -0.000913521964128
       -0.000260747410267
        0.000000000000000
        0.000000000000000
        0.000377278091806
        0.001347142663734
        0.002618084385241
        0.000949996305844
       -0.002547459953005
       -0.001327233579736
       -0.000376903127122
       -0.000065834498273
        0.000146985196110
        0.001046018171612
        0.005138635691003
        0.016765184092679
        0.020919945055473
        0.004986102461025
       -0.000023577245993
       -0.000213334888950
       -0.000053038820797
        0.000163873256132
        0.001221075549674
        0.006228277209527
        0.020776754053956
        0.020878128849745
        0.006630590339114
        0.000994460427428
        0.000041625344101
        0.000000000000000
        0.000000000000000
        0.000702418674301
        0.002839403292298
        0.006894365945699
        0.007074782019401
        0.003093398293850
        0.000738570125497
        0.000083736090521
        0.000000000000000
        0.000000000000000
        0.000215284948488
        0.000761062829641
        0.001487855699585
        0.001555402542745
        0.000838940212342
        0.000238318663355
        0.000000000000000
        0.000000000000000
        0.000000000000000
        0.000000000000000
        0.000000000000000
        0.000217256220312
        0.000227642704581
        0.000000000000000
        0.000000000000000
        0.000000000000000
        0.000000000000000
        0.000000000000000
        0.000000000000000
        0.000000000000000
       -0.000167475425539
       -0.000252848466328
       -0.000171759908480
        0.000000000000000
        0.000000000000000
        0.000000000000000
        0.000000000000000
       -0.000089062527213
       -0.000388054619290
       -0.001008685307534
       -0.001467246668577
       -0.001142144628377
       -0.000516959051414
       -0.000134751928304
        0.000000000000000
        0.000000000000000
       -0.000170628289818
       -0.001032875117455
       -0.003709247838196
       -0.006718644531663
       -0.004753149245938
       -0.001797247234618
       -0.000445191504770
        0.000000000000000
        0.000021520946786
        0.000046255947041
       -0.000700004270334
       -0.006208207326467
       -0.017822910808928
       -0.012427791897448
       -0.003754328011608
       -0.000792912813319
       -0.000109339962748
        0.000122418548271
        0.000714959106107
        0.003296008361722
        0.008801473032539
        0.000003617508145
       -0.008913947721134
       -0.003381996774655
       -0.000743400603452
       -0.000128896169760
        0.000142712075220
        0.001001477661597
        0.004848190763189
        0.015391674845251
        0.017824445497808
        0.003126715427230
       -0.000502345695390
       -0.000296389563656
       -0.000063593950133
        0.000000000000000
        0.000610927403945
        0.002416572866521
        0.005889704822410
        0.006718947348996
        0.002544681460678
        0.000377306232343
       -0.000012535331813
        0.000000000000000
        0.000000000000000
        0.000197743562586
        0.000687648026893
        0.001369465802217
        0.001467292550396
        0.000776729417114
        0.000209527517801
        0.000021770274478
        0.000000000000000
        0.000000000000000
        0.000000000000000
        0.000000000000000
        0.000209203216963
        0.000252852805289
        0.000129499806492
        0.000000000000000
        0.000000000000000
        0.000000000000000
        0.000000000000000
        0.000000000000000
        0.000000000000000
       -0.000173489576548
       -0.000210744128298
        0.000000000000000
        0.000000000000000
        0.000000000000000
        0.000000000000000
        0.000000000000000
       -0.000113474924619
       -0.000477927020070
       -0.001119444696210
       -0.001452230518495
       -0.001020289180622
       -0.000404399580267
        0.000000000000000
        0.000000000000000
        0.000000000000000
       -0.000315144459566
       -0.001601214150569
       -0.004790989739558
       -0.006564171977873
       -0.004093250645305
       -0.001552763324119
       -0.000354530148072
        0.000000000000000
       -0.000023834689934
       -0.000368988117752
       -0.002911144933910
       -0.013043733602343
       -0.019546648184578
       -0.010560514277940
       -0.003407629664951
       -0.000761851303529
        0.000000000000000
        0.000017247825896
        0.000001715437026
       -0.000990449198147
       -0.007581716573896
       -0.020918410366593
       -0.014287178931243
       -0.004233096461005
       -0.000875967488026
       -0.000119895092084
        0.000000000000000
        0.000315523946670
        0.001004441847187
        0.001262199800496
       -0.002279905372440
       -0.005284860703702
       -0.002076605003830
       -0.000509013701261
       -0.000081623014801
        0.000000000000000
        0.000242989355549
        0.000876840885558
        0.001709388639294
        0.001381684642807
       -0.000178257180178
       -0.000357117750619
       -0.000141856642671
        0.000000000000000
        0.000000000000000
        0.000000000000000
        0.000295388676368
        0.000584335953067
        0.000594730243238
        0.000252722896101
        0.000023963122118
       -0.000010837969198
        0.000000000000000
        0.000000000000000
        0.000000000000000
        0.000000000000000
        0.000000000000000
        0.000111585264509
        0.000071046515374
        0.000000000000000
        0.000000000000000
        0.000000000000000
        0.000000000000000
        0.000000000000000
        0.000000000000000
        0.000000000000000
        0.000000000000000
        0.000000000000000
        0.000000000000000
        0.000000000000000
        0.000000000000000
        0.000000000000000
        0.000000000000000
       -0.000274463574449
       -0.000634415948059
       -0.000770715462703
       -0.000485163120414
        0.000000000000000
        0.000000000000000
        0.000000000000000
        0.000000000000000
       -0.000205379013308
       -0.000937748768880
       -0.002310154275426
       -0.002923000801322
       -0.001906639311656
       -0.000696383924827
        0.000000000000000
        0.000000000000000
        0.000000000000000
       -0.000330878406471
       -0.001673342527177
       -0.005006875544351
       -0.006915035974635
       -0.004337504961390
       -0.001646731648161
       -0.000376197028796
        0.000000000000000
        0.000000000000000
       -0.000209114743630
       -0.001225421362920
       -0.004350189526867
       -0.007885527239721
       -0.005581988196099
       -0.002095891801101
       -0.000513309896895
        0.000000000000000
        0.000000000000000
       -0.000017851147779
       -0.000269116693906
       -0.001308226398580
       -0.003009635682271
       -0.002915504668319
       -0.001283568422705
       -0.000346581160796
        0.000000000000000
        0.000000000000000
        0.000000000000000
        0.000082154644611
       -0.000003944160507
       -0.000387614435989
       -0.000641392740250
       -0.000384926171703
       -0.000117908604904
        0.000000000000000
        0.000000000000000
        0.000000000000000
        0.000000000000000
        0.000094201319450
        0.000053914697075
       -0.000039114388191
       -0.000047657195276
        0.000000000000000
        0.000000000000000
        0.000000000000000
        0.000000000000000
        0.000000000000000
        0.000000000000000
        0.000000000000000
        0.000000000000000
        0.000000000000000
        0.000000000000000
        0.000000000000000
        0.000000000000000
        0.000000000000000
        0.000000000000000
        0.000000000000000
        0.000000000000000
        0.000000000000000
        0.000000000000000
        0.000000000000000
        0.000000000000000
        0.000000000000000
        0.000000000000000
        0.000000000000000
       -0.000199018784449
       -0.000227664016148
        0.000000000000000
        0.000000000000000
        0.000000000000000
        0.000000000000000
        0.000000000000000
        0.000000000000000
       -0.000282320899245
       -0.000653182325646
       -0.000796140158701
       -0.000503043618724
        0.000000000000000
        0.000000000000000
        0.000000000000000
        0.000000000000000
       -0.000122097006972
       -0.000512408897171
       -0.001205937646567
       -0.001575493828247
       -0.001112851342772
       -0.000443924376653
        0.000000000000000
        0.000000000000000
        0.000000000000000
       -0.000103012166400
       -0.000451889736019
       -0.001176278642243
       -0.001722074864831
       -0.001348202147289
       -0.000610398716123
       -0.000159734666978
        0.000000000000000
        0.000000000000000
        0.000000000000000
       -0.000186648553866
       -0.000559214010060
       -0.000947985854671
       -0.000843918283926
       -0.000418930893910
       -0.000123026269007
        0.000000000000000
        0.000000000000000
        0.000000000000000
        0.000000000000000
       -0.000126712179116
       -0.000264284300202
       -0.000277052744604
       -0.000148575013411
        0.000000000000000
        0.000000000000000
        0.000000000000000
        0.000000000000000
        0.000000000000000
        0.000000000000000
       -0.000034074162171
       -0.000045180676498
        0.000000000000000
        0.000000000000000
        0.000000000000000
        0.000000000000000
        0.000000000000000
        0.000000000000000
        0.000000000000000
        0.000000000000000
        0.000000000000000
        0.000000000000000
        0.000000000000000
        0.000000000000000
        0.000000000000000
        0.000000000000000
        0.000000000000000
        0.000000000000000
        0.000000000000000
        0.000000000000000
        0.000000000000000
        0.000000000000000
        0.000000000000000
        0.000000000000000
        0.000000000000000
        0.000000000000000
        0.000000000000000
        0.000000000000000
        0.000000000000000
        0.000000000000000
        0.000000000000000
        0.000000000000000
        0.000000000000000
        0.000000000000000
        0.000000000000000
        0.000000000000000
        0.000000000000000
        0.000000000000000
        0.000000000000000
        0.000000000000000
        0.000000000000000
        0.000000000000000
        0.000000000000000
        0.000000000000000
       -0.000190798821966
       -0.000232863158740
        0.000000000000000
        0.000000000000000
        0.000000000000000
        0.000000000000000
        0.000000000000000
        0.000000000000000
        0.000000000000000
       -0.000193810076774
       -0.000296762440577
       -0.000204378941164
        0.000000000000000
        0.000000000000000
        0.000000000000000
        0.000000000000000
        0.000000000000000
        0.000000000000000
        0.000000000000000
       -0.000165272441228
       -0.000148400253516
        0.000000000000000
        0.000000000000000
        0.000000000000000
        0.000000000000000
        0.000000000000000
        0.000000000000000
        0.000000000000000
        0.000000000000000
        0.000000000000000
        0.000000000000000
        0.000000000000000
        0.000000000000000
        0.000000000000000
        0.000000000000000
        0.000000000000000
        0.000000000000000
        0.000000000000000
        0.000000000000000
        0.000000000000000
        0.000000000000000
        0.000000000000000
        0.000000000000000
        0.000000000000000
        0.000000000000000
        0.000000000000000
        0.000000000000000
        0.000000000000000
        0.000000000000000
        0.000000000000000
        0.000000000000000
END_DATAGRID_3D
END_BLOCK_DATAGRID_3D
