ATOMS
         C    7.558905    7.558905    7.558905
         H    8.755769    8.755769    8.755769
         H    6.362040    6.362040    8.755769
         H    8.755769    6.362040    6.362040
         H    6.362040    8.755769    6.362040
BEGIN_BLOCK_DATAGRID_3D
units: coords = b, function = 1/hbar/H*b^-2
BEGIN_DATAGRID_3D_function
      9      9      9
0.0 0.0 0.0
   15.117809    0.000000    0.000000
    0.000000   15.117809    0.000000
    0.000000    0.000000   15.117809
        0.000000000000000
        0.000000000000000
        0.000000000000000
        0.000000000000000
        0.000000000000000
        0.000000000000000
        0.000000000000000
        0.000000000000000
        0.000000000000000
        0.000000000000000
        0.000000000000000
        0.000000000000000
        0.000000000000000
        0.000000000000000
        0.000000000000000
        0.000000000000000
        0.000000000000000
        0.000000000000000
        0.000000000000000
        0.000000000000000
        0.000000000000000
        0.000000000000000
        0.000000000000000
        0.000000000000000
        0.000000000000000
        0.000000000000000
        0.000000000000000
        0.000000000000000
        0.000000000000000
        0.000000000000000
        0.000000000000000
       -0.000000001729688
        0.000000001129342
        0.000000000000000
        0.000000000000000
        0.000000000000000
        0.000000000000000
        0.000000000000000
        0.000000000000000
       -0.000000001123945
       -0.000000000000589
        0.000000001120129
        0.000000000000000
        0.000000000000000
        0.000000000000000
        0.000000000000000
        0.000000000000000
        0.000000000000000
       -0.000000001131797
        0.000000001723864
        0.000000000000000
        0.000000000000000
        0.000000000000000
        0.000000000000000
        0.000000000000000
        0.000000000000000
        0.000000000000000
        0.000000000000000
        0.000000000000000
        0.000000000000000
        0.000000000000000
        0.000000000000000
        0.000000000000000
        0.000000000000000
        0.000000000000000
        0.000000000000000
        0.000000000000000
        0.000000000000000
        0.000000000000000
        0.000000000000000
        0.000000000000000
        0.000000000000000
        0.000000000000000
        0.000000000000000
        0.000000000000000
        0.000000000000000
        0.000000000000000
        0.000000000000000
        0.000000000000000
        0.000000000000000
        0.000000000000000
        0.000000000000000
        0.000000000000000
        0.000000000000000
        0.000000000000000
        0.000000000000000
        0.000000000000000
        0.000000000000000
        0.000000000000000
        0.000000000000000
        0.000000000000000
        0.000000000000000
        0.000000000000000
        0.000000000000000
       -0.000000001093468
        0.000000001007207
        0.000000000000000
        0.000000000000000
        0.000000000000000
        0.000000000000000
        0.000000000000000
        0.000000000000000
       -0.000000003118769
       -0.000000000523450
        0.000000000096712
        0.000000002229293
        0.000000000000000
        0.000000000000000
        0.000000000000000
        0.000000000000000
       -0.000000002296432
       -0.000000006799244
       -0.000000015867646
        0.000000011636979
        0.000000006902601
       -0.000000000251389
        0.000000000000000
        0.000000000000000
        0.000000000220871
       -0.000000004256630
       -0.000000028543962
       -0.000000000030896
        0.000000028607538
        0.000000004280650
       -0.000000000218075
        0.000000000000000
        0.000000000000000
        0.000000000252352
       -0.000000006865524
       -0.000000011644908
        0.000000015875980
        0.000000006815619
        0.000000002304218
        0.000000000000000
        0.000000000000000
        0.000000000000000
        0.000000000000000
       -0.000000002228140
       -0.000000000088009
        0.000000000523725
        0.000000003123455
        0.000000000000000
        0.000000000000000
        0.000000000000000
        0.000000000000000
        0.000000000000000
        0.000000000000000
       -0.000000001007908
        0.000000001094668
        0.000000000000000
        0.000000000000000
        0.000000000000000
        0.000000000000000
        0.000000000000000
        0.000000000000000
        0.000000000000000
        0.000000000000000
        0.000000000000000
        0.000000000000000
        0.000000000000000
        0.000000000000000
        0.000000000000000
        0.000000000000000
        0.000000000000000
        0.000000000000000
        0.000000000000000
        0.000000000000000
        0.000000000000000
        0.000000000000000
        0.000000000000000
        0.000000000000000
        0.000000000000000
        0.000000000000000
        0.000000000000000
       -0.000000002169753
       -0.000000001729325
        0.000000001201703
        0.000000001318018
        0.000000000000000
        0.000000000000000
        0.000000000000000
        0.000000000000000
       -0.000000004392205
        0.000000001346206
        0.000000013178148
       -0.000000013662269
       -0.000000006446958
        0.000000000888039
        0.000000000000000
        0.000000000000000
       -0.000000000181990
       -0.000000007060829
        0.000000171001120
        0.000000288414721
       -0.000000244693537
       -0.000000168107693
        0.000000008607323
        0.000000000000000
        0.000000000000000
       -0.000000005971670
        0.000000090820437
        0.000000681585090
        0.000000000362935
       -0.000000683596540
       -0.000000091479417
        0.000000006024665
        0.000000000000000
        0.000000000000000
       -0.000000008552881
        0.000000167196143
        0.000000245823098
       -0.000000288323395
       -0.000000171871124
        0.000000007026329
        0.000000000191660
        0.000000000000000
        0.000000000000000
       -0.000000000883658
        0.000000006391705
        0.000000013842048
       -0.000000013114150
       -0.000000001418964
        0.000000004402637
        0.000000000000000
        0.000000000000000
        0.000000000000000
        0.000000000000000
       -0.000000001319954
       -0.000000001196828
        0.000000001731543
        0.000000002169602
        0.000000000000000
        0.000000000000000
        0.000000000000000
        0.000000000000000
        0.000000000000000
        0.000000000000000
        0.000000000000000
        0.000000000000000
        0.000000000000000
        0.000000000000000
        0.000000000000000
        0.000000000000000
        0.000000000000000
        0.000000000000000
        0.000000000000000
        0.000000000000000
       -0.000000000659272
        0.000000000001315
        0.000000000000000
        0.000000000000000
        0.000000000000000
        0.000000000000000
        0.000000000000000
       -0.000000001444358
       -0.000000003626245
        0.000000000997009
       -0.000000000841164
        0.000000001819870
       -0.000000000000378
        0.000000000000000
        0.000000000000000
       -0.000000000790602
       -0.000000001524081
        0.000000041357917
       -0.000000023811852
       -0.000000082299049
       -0.000000007798950
        0.000000000718907
        0.000000000000000
        0.000000000000000
       -0.000000010528111
        0.000000157690906
        0.000000490913552
       -0.000000839698712
       -0.000001561551666
       -0.000000133980626
        0.000000007720693
       -0.000000000049081
       -0.000000000287933
       -0.000000023910252
        0.000000566384744
        0.000001828477705
        0.000000013566291
       -0.000001840702223
       -0.000000569558355
        0.000000024040531
        0.000000000293718
        0.000000000049180
       -0.000000007641606
        0.000000133143887
        0.000001553617133
        0.000000844979577
       -0.000000492511477
       -0.000000158723467
        0.000000010586561
        0.000000000000000
        0.000000000000000
       -0.000000000705966
        0.000000007789317
        0.000000081930023
        0.000000024227322
       -0.000000041524526
        0.000000001464221
        0.000000000798098
        0.000000000000000
        0.000000000000000
        0.000000000000131
       -0.000000001815093
        0.000000000859042
       -0.000000000971191
        0.000000003625176
        0.000000001445977
        0.000000000000000
        0.000000000000000
        0.000000000000000
        0.000000000000000
        0.000000000000000
       -0.000000000000693
        0.000000000658087
        0.000000000000000
        0.000000000000000
        0.000000000000000
        0.000000000000000
        0.000000000000000
        0.000000000000000
        0.000000000000000
        0.000000000000693
       -0.000000001952747
        0.000000000001315
        0.000000000000000
        0.000000000000000
        0.000000000000000
        0.000000000000000
       -0.000000000000131
       -0.000000002588990
        0.000000001126065
       -0.000000000686792
        0.000000001135027
       -0.000000002583194
       -0.000000000000378
        0.000000000000000
        0.000000000000000
       -0.000000001874672
        0.000000014871540
       -0.000000030185407
       -0.000000082348060
       -0.000000030689684
        0.000000015025656
       -0.000000001879916
        0.000000000000000
       -0.000000000049180
       -0.000000015294686
        0.000000264868787
       -0.000000808562791
       -0.000002042537574
       -0.000000816513373
        0.000000266293951
       -0.000000015326452
       -0.000000000049081
       -0.000000000000000
       -0.000000000000000
        0.000000000000000
       -0.000000000000000
        0.000000000000000
       -0.000000000000000
       -0.000000000000000
        0.000000000000000
        0.000000000000000
        0.000000000049180
        0.000000015294686
       -0.000000264868787
        0.000000808562791
        0.000002042537574
        0.000000816513373
       -0.000000266293951
        0.000000015326452
        0.000000000049081
        0.000000000000000
        0.000000001874672
       -0.000000014871540
        0.000000030185407
        0.000000082348060
        0.000000030689684
       -0.000000015025656
        0.000000001879916
        0.000000000000000
        0.000000000000000
        0.000000000000131
        0.000000002588990
       -0.000000001126065
        0.000000000686792
       -0.000000001135027
        0.000000002583194
        0.000000000000378
        0.000000000000000
        0.000000000000000
        0.000000000000000
        0.000000000000000
       -0.000000000000693
        0.000000001952747
       -0.000000000001315
        0.000000000000000
        0.000000000000000
        0.000000000000000
        0.000000000000000
        0.000000000000000
        0.000000000000000
        0.000000000000693
       -0.000000000658087
        0.000000000000000
        0.000000000000000
        0.000000000000000
        0.000000000000000
        0.000000000000000
       -0.000000000000131
        0.000000001815093
       -0.000000000859042
        0.000000000971191
       -0.000000003625176
       -0.000000001445977
        0.000000000000000
        0.000000000000000
        0.000000000000000
        0.000000000705966
       -0.000000007789317
       -0.000000081930023
       -0.000000024227322
        0.000000041524526
       -0.000000001464221
       -0.000000000798098
        0.000000000000000
       -0.000000000049180
        0.000000007641606
       -0.000000133143887
       -0.000001553617133
       -0.000000844979577
        0.000000492511477
        0.000000158723467
       -0.000000010586561
        0.000000000000000
        0.000000000287933
        0.000000023910252
       -0.000000566384744
       -0.000001828477705
       -0.000000013566291
        0.000001840702223
        0.000000569558355
       -0.000000024040531
       -0.000000000293718
        0.000000000000000
        0.000000010528111
       -0.000000157690906
       -0.000000490913552
        0.000000839698712
        0.000001561551666
        0.000000133980626
       -0.000000007720693
        0.000000000049081
        0.000000000000000
        0.000000000790602
        0.000000001524081
       -0.000000041357917
        0.000000023811852
        0.000000082299049
        0.000000007798950
       -0.000000000718907
        0.000000000000000
        0.000000000000000
        0.000000000000000
        0.000000001444358
        0.000000003626245
       -0.000000000997009
        0.000000000841164
       -0.000000001819870
        0.000000000000378
        0.000000000000000
        0.000000000000000
        0.000000000000000
        0.000000000000000
        0.000000000000000
        0.000000000659272
       -0.000000000001315
        0.000000000000000
        0.000000000000000
        0.000000000000000
        0.000000000000000
        0.000000000000000
        0.000000000000000
        0.000000000000000
        0.000000000000000
        0.000000000000000
        0.000000000000000
        0.000000000000000
        0.000000000000000
        0.000000000000000
        0.000000000000000
        0.000000001319954
        0.000000001196828
       -0.000000001731543
       -0.000000002169602
        0.000000000000000
        0.000000000000000
        0.000000000000000
        0.000000000000000
        0.000000000883658
       -0.000000006391705
       -0.000000013842048
        0.000000013114150
        0.000000001418964
       -0.000000004402637
        0.000000000000000
        0.000000000000000
        0.000000000000000
        0.000000008552881
       -0.000000167196143
       -0.000000245823098
        0.000000288323395
        0.000000171871124
       -0.000000007026329
       -0.000000000191660
        0.000000000000000
        0.000000000000000
        0.000000005971670
       -0.000000090820437
       -0.000000681585090
       -0.000000000362935
        0.000000683596540
        0.000000091479417
       -0.000000006024665
        0.000000000000000
        0.000000000000000
        0.000000000181990
        0.000000007060829
       -0.000000171001120
       -0.000000288414721
        0.000000244693537
        0.000000168107693
       -0.000000008607323
        0.000000000000000
        0.000000000000000
        0.000000000000000
        0.000000004392205
       -0.000000001346206
       -0.000000013178148
        0.000000013662269
        0.000000006446958
       -0.000000000888039
        0.000000000000000
        0.000000000000000
        0.000000000000000
        0.000000000000000
        0.000000002169753
        0.000000001729325
       -0.000000001201703
       -0.000000001318018
        0.000000000000000
        0.000000000000000
        0.000000000000000
        0.000000000000000
        0.000000000000000
        0.000000000000000
        0.000000000000000
        0.000000000000000
        0.000000000000000
        0.000000000000000
        0.000000000000000
        0.000000000000000
        0.000000000000000
        0.000000000000000
        0.000000000000000
        0.000000000000000
        0.000000000000000
        0.000000000000000
        0.000000000000000
        0.000000000000000
        0.000000000000000
        0.000000000000000
        0.000000000000000
        0.000000001007908
       -0.000000001094668
        0.000000000000000
        0.000000000000000
        0.000000000000000
        0.000000000000000
        0.000000000000000
        0.000000000000000
        0.000000002228140
        0.000000000088009
       -0.000000000523725
       -0.000000003123455
        0.000000000000000
        0.000000000000000
        0.000000000000000
        0.000000000000000
       -0.000000000252352
        0.000000006865524
        0.000000011644908
       -0.000000015875980
       -0.000000006815619
       -0.000000002304218
        0.000000000000000
        0.000000000000000
        0.000000000000000
       -0.000000000220871
        0.000000004256630
        0.000000028543962
        0.000000000030896
       -0.000000028607538
       -0.000000004280650
        0.000000000218075
        0.000000000000000
        0.000000000000000
        0.000000000000000
        0.000000002296432
        0.000000006799244
        0.000000015867646
       -0.000000011636979
       -0.000000006902601
        0.000000000251389
        0.000000000000000
        0.000000000000000
        0.000000000000000
        0.000000000000000
        0.000000003118769
        0.000000000523450
       -0.000000000096712
       -0.000000002229293
        0.000000000000000
        0.000000000000000
        0.000000000000000
        0.000000000000000
        0.000000000000000
        0.000000000000000
        0.000000001093468
       -0.000000001007207
        0.000000000000000
        0.000000000000000
        0.000000000000000
        0.000000000000000
        0.000000000000000
        0.000000000000000
        0.000000000000000
        0.000000000000000
        0.000000000000000
        0.000000000000000
        0.000000000000000
        0.000000000000000
        0.000000000000000
        0.000000000000000
        0.000000000000000
        0.000000000000000
        0.000000000000000
        0.000000000000000
        0.000000000000000
        0.000000000000000
        0.000000000000000
        0.000000000000000
        0.000000000000000
        0.000000000000000
        0.000000000000000
        0.000000000000000
        0.000000000000000
        0.000000000000000
        0.000000000000000
        0.000000000000000
        0.000000000000000
        0.000000000000000
        0.000000000000000
        0.000000000000000
        0.000000000000000
        0.000000000000000
        0.000000000000000
        0.000000000000000
        0.000000000000000
        0.000000000000000
        0.000000000000000
        0.000000000000000
        0.000000001131797
       -0.000000001723864
        0.000000000000000
        0.000000000000000
        0.000000000000000
        0.000000000000000
        0.000000000000000
        0.000000000000000
        0.000000000000000
        0.000000001123945
        0.000000000000589
       -0.000000001120129
        0.000000000000000
        0.000000000000000
        0.000000000000000
        0.000000000000000
        0.000000000000000
        0.000000000000000
        0.000000000000000
        0.000000001729688
       -0.000000001129342
        0.000000000000000
        0.000000000000000
        0.000000000000000
        0.000000000000000
        0.000000000000000
        0.000000000000000
        0.000000000000000
        0.000000000000000
        0.000000000000000
        0.000000000000000
        0.000000000000000
        0.000000000000000
        0.000000000000000
        0.000000000000000
        0.000000000000000
        0.000000000000000
        0.000000000000000
        0.000000000000000
        0.000000000000000
        0.000000000000000
        0.000000000000000
        0.000000000000000
        0.000000000000000
        0.000000000000000
        0.000000000000000
        0.000000000000000
        0.000000000000000
        0.000000000000000
        0.000000000000000
        0.000000000000000
END_DATAGRID_3D
END_BLOCK_DATAGRID_3D
