ATOMS
         C    7.558905    7.558905    7.558905
         H    8.755769    8.755769    8.755769
         H    6.362040    6.362040    8.755769
         H    8.755769    6.362040    6.362040
         H    6.362040    8.755769    6.362040
BEGIN_BLOCK_DATAGRID_3D
units: coords = b, function = sqrt(b^-3)
BEGIN_DATAGRID_3D_function
      9      9      9
0.0 0.0 0.0
   15.117809    0.000000    0.000000
    0.000000   15.117809    0.000000
    0.000000    0.000000   15.117809
        0.000000000000000
        0.000000000000000
        0.000000000000000
        0.000000000000000
        0.000000000000000
        0.000000000000000
        0.000000000000000
        0.000000000000000
        0.000000000000000
        0.000000000000000
        0.000000000000000
        0.000000000000000
        0.000000000000000
        0.000000000000000
        0.000000000000000
        0.000000000000000
        0.000000000000000
        0.000000000000000
        0.000000000000000
        0.000000000000000
        0.000000000000000
        0.000000000000000
        0.000000000000000
        0.000000000000000
        0.000000000000000
        0.000000000000000
        0.000000000000000
        0.000000000000000
        0.000000000000000
        0.000000000000000
        0.000000000000000
       -0.000132582474573
        0.000049928218241
        0.000000000000000
        0.000000000000000
        0.000000000000000
        0.000000000000000
        0.000000000000000
        0.000000000000000
       -0.000293960939520
       -0.000123033624101
        0.000128396702260
        0.000000000000000
        0.000000000000000
        0.000000000000000
        0.000000000000000
        0.000000000000000
        0.000000000000000
       -0.000190937018921
       -0.000032296847667
        0.000000000000000
        0.000000000000000
        0.000000000000000
        0.000000000000000
        0.000000000000000
        0.000000000000000
        0.000000000000000
        0.000000000000000
        0.000000000000000
        0.000000000000000
        0.000000000000000
        0.000000000000000
        0.000000000000000
        0.000000000000000
        0.000000000000000
        0.000000000000000
        0.000000000000000
        0.000000000000000
        0.000000000000000
        0.000000000000000
        0.000000000000000
        0.000000000000000
        0.000000000000000
        0.000000000000000
        0.000000000000000
        0.000000000000000
        0.000000000000000
        0.000000000000000
        0.000000000000000
        0.000000000000000
        0.000000000000000
        0.000000000000000
        0.000000000000000
        0.000000000000000
        0.000000000000000
        0.000000000000000
        0.000000000000000
        0.000000000000000
        0.000000000000000
        0.000000000000000
        0.000000000000000
        0.000000000000000
        0.000000000000000
        0.000000000000000
       -0.000286233077674
       -0.000097689122873
        0.000000000000000
        0.000000000000000
        0.000000000000000
        0.000000000000000
        0.000000000000000
        0.000000000000000
       -0.001039036930425
       -0.000866696720811
       -0.000013290684035
        0.000285405402432
        0.000000000000000
        0.000000000000000
        0.000000000000000
        0.000000000000000
       -0.001374307250955
       -0.002225803629109
       -0.001239752410985
        0.000585951635971
        0.000939215555903
        0.000423775277916
        0.000000000000000
        0.000000000000000
       -0.000672851240176
       -0.001918011294760
       -0.002517957299457
       -0.000714646266909
        0.001463486165744
        0.001466166285117
        0.000558179038141
        0.000000000000000
        0.000000000000000
       -0.000530264633147
       -0.001334297056188
       -0.001441484410547
        0.000192387974784
        0.001526799766268
        0.001106156912174
        0.000000000000000
        0.000000000000000
        0.000000000000000
        0.000000000000000
       -0.000467335001749
       -0.000374550504585
        0.000426626092682
        0.000776419928689
        0.000000000000000
        0.000000000000000
        0.000000000000000
        0.000000000000000
        0.000000000000000
        0.000000000000000
       -0.000003853895351
        0.000177996216887
        0.000000000000000
        0.000000000000000
        0.000000000000000
        0.000000000000000
        0.000000000000000
        0.000000000000000
        0.000000000000000
        0.000000000000000
        0.000000000000000
        0.000000000000000
        0.000000000000000
        0.000000000000000
        0.000000000000000
        0.000000000000000
        0.000000000000000
        0.000000000000000
        0.000000000000000
        0.000000000000000
        0.000000000000000
        0.000000000000000
        0.000000000000000
        0.000000000000000
        0.000000000000000
        0.000000000000000
        0.000000000000000
       -0.001380117141838
       -0.001354158304500
       -0.000374825744894
        0.000133279936545
        0.000000000000000
        0.000000000000000
        0.000000000000000
        0.000000000000000
       -0.002797526646776
       -0.005281926472519
       -0.004193786135322
        0.000063147854357
        0.001258062474359
        0.000604851066592
        0.000000000000000
        0.000000000000000
       -0.001997945780732
       -0.006745628351929
       -0.011529374601815
       -0.007132505696266
        0.004126424630216
        0.004402853929245
        0.001696971264152
        0.000000000000000
        0.000000000000000
       -0.002810155105743
       -0.008830299656124
       -0.014545868502315
       -0.003278897161711
        0.010378829647478
        0.007403630015416
        0.002485709155027
        0.000000000000000
        0.000000000000000
       -0.001996912719696
       -0.005665224519114
       -0.007445629555877
        0.003006855868614
        0.009157385751532
        0.005914635459605
        0.001818287123490
        0.000000000000000
        0.000000000000000
       -0.000746531728938
       -0.001820930611545
       -0.001297403384046
        0.002817415199812
        0.004476654641355
        0.002529659931954
        0.000000000000000
        0.000000000000000
        0.000000000000000
        0.000000000000000
       -0.000269586204985
        0.000093987019061
        0.001056215575549
        0.001215754462877
        0.000000000000000
        0.000000000000000
        0.000000000000000
        0.000000000000000
        0.000000000000000
        0.000000000000000
        0.000000000000000
        0.000000000000000
        0.000000000000000
        0.000000000000000
        0.000000000000000
        0.000000000000000
        0.000000000000000
        0.000000000000000
        0.000000000000000
        0.000000000000000
       -0.000556453397770
       -0.000283653300482
        0.000000000000000
        0.000000000000000
        0.000000000000000
        0.000000000000000
        0.000000000000000
       -0.002124815469190
       -0.003992042217868
       -0.003603111817715
       -0.001080462198481
        0.000271693014919
        0.000256063454548
        0.000000000000000
        0.000000000000000
       -0.002407457180910
       -0.008529934333531
       -0.016189292302986
       -0.013859935299363
       -0.000033950809504
        0.003006248446463
        0.001390927969587
        0.000000000000000
        0.000000000000000
       -0.005449811247582
       -0.020016818648864
       -0.042635241725000
       -0.031286610409392
        0.017396947288450
        0.012878542035268
        0.004082589194024
        0.000748338214010
       -0.001070687587460
       -0.006838259268421
       -0.026801850228526
       -0.060264998491695
       -0.008715120873248
        0.050981666114109
        0.024507852134654
        0.006412052860458
        0.001014870378424
       -0.000802529438627
       -0.004491600183927
       -0.015034038525366
       -0.025138597892032
        0.022178783060143
        0.038665383778845
        0.018919199112098
        0.005217876511817
        0.000000000000000
        0.000000000000000
       -0.001597584167370
       -0.003850016998546
       -0.002057269584776
        0.011695030005128
        0.015157769153687
        0.008204197885538
        0.002341902204475
        0.000000000000000
        0.000000000000000
       -0.000311436601129
       -0.000466344905820
        0.000717816634049
        0.003244734598830
        0.003800274665205
        0.002069246384335
        0.000000000000000
        0.000000000000000
        0.000000000000000
        0.000000000000000
        0.000000000000000
        0.000241035743438
        0.000515768856249
        0.000000000000000
        0.000000000000000
        0.000000000000000
        0.000000000000000
        0.000000000000000
        0.000000000000000
        0.000000000000000
       -0.000916194320051
       -0.000965094806012
       -0.000379179577580
        0.000000000000000
        0.000000000000000
        0.000000000000000
        0.000000000000000
       -0.001145054735402
       -0.003692661268329
       -0.006450143142185
       -0.005600942021974
       -0.001765636111600
        0.000230315530801
        0.000286794128159
        0.000000000000000
        0.000000000000000
       -0.004097763088268
       -0.014500306174021
       -0.030358035260053
       -0.025653994184831
       -0.001975188612293
        0.003674991306081
        0.001737083413983
        0.000000000000000
       -0.001269207575072
       -0.008408518731267
       -0.035886548132131
       -0.095728538729126
       -0.068072317613275
        0.024497903526330
        0.018880877679822
        0.005545875320024
        0.000931223533424
       -0.001663282007214
       -0.009633166562428
       -0.043989583174762
       -0.116647993892056
       -0.000018668057404
        0.116151731890740
        0.043763550184419
        0.009529372382952
        0.001638692721682
       -0.000961547741877
       -0.005707521515391
       -0.019496207773032
       -0.026004024081851
        0.067931500324098
        0.096676247204274
        0.036181338834120
        0.008418333026403
        0.001267997846752
        0.000000000000000
       -0.001833389496235
       -0.003985061914204
        0.001448752597134
        0.025614054625087
        0.030741060517265
        0.014681127591812
        0.004131682343108
        0.000000000000000
        0.000000000000000
       -0.000318875423866
       -0.000311294299819
        0.001665812351978
        0.005595159924169
        0.006524294851756
        0.003742409910427
        0.001161894459704
        0.000000000000000
        0.000000000000000
        0.000000000000000
        0.000000000000000
        0.000363192267064
        0.000964294484842
        0.000929869234141
        0.000000000000000
        0.000000000000000
        0.000000000000000
        0.000000000000000
        0.000000000000000
        0.000000000000000
       -0.000820990873720
       -0.000738232971786
        0.000000000000000
        0.000000000000000
        0.000000000000000
        0.000000000000000
        0.000000000000000
       -0.001059960379836
       -0.003317606857560
       -0.005602615754353
       -0.004604617985851
       -0.001439412044368
        0.000077558965188
        0.000000000000000
        0.000000000000000
        0.000000000000000
       -0.003619410379270
       -0.012690560381897
       -0.025827180763605
       -0.018429601737293
       -0.002138563023971
        0.002318920103539
        0.001130538336884
        0.000000000000000
       -0.001099588448991
       -0.006989078154299
       -0.029252962490246
       -0.077366037664353
       -0.039768442254987
        0.012522121182629
        0.012282220637741
        0.004016679219271
        0.000000000000000
       -0.001160067729488
       -0.007277780978238
       -0.028580905676637
       -0.061467564319282
        0.008574303584070
        0.070192484616495
        0.030554364379288
        0.007552155485970
        0.001184351001751
        0.000000000000000
       -0.003882592220007
       -0.011393486229290
       -0.008811747637093
        0.048670829392832
        0.084643576505612
        0.031152107807774
        0.007273784489565
        0.001126901403058
        0.000000000000000
       -0.001101046478530
       -0.002072056292329
        0.003096196312033
        0.020540014142340
        0.027786705543533
        0.013420687145947
        0.003770950715889
        0.000000000000000
        0.000000000000000
        0.000000000000000
       -0.000037699549266
        0.001616770743759
        0.004953923065955
        0.005940668489789
        0.003482885788808
        0.001101023839087
        0.000000000000000
        0.000000000000000
        0.000000000000000
        0.000000000000000
        0.000000000000000
        0.000778013669831
        0.000861353263822
        0.000000000000000
        0.000000000000000
        0.000000000000000
        0.000000000000000
        0.000000000000000
        0.000000000000000
        0.000000000000000
        0.000000000000000
        0.000000000000000
        0.000000000000000
        0.000000000000000
        0.000000000000000
        0.000000000000000
        0.000000000000000
       -0.001545859885396
       -0.002662907192156
       -0.002095032151898
       -0.000661135438579
        0.000000000000000
        0.000000000000000
        0.000000000000000
        0.000000000000000
       -0.001673471965412
       -0.005607106319774
       -0.009717757069481
       -0.006577486962096
       -0.000901737422390
        0.000820435806260
        0.000000000000000
        0.000000000000000
        0.000000000000000
       -0.003220081826944
       -0.010875352861329
       -0.020438820792504
       -0.009741427600779
        0.003861820378184
        0.004608482529471
        0.001654153417870
        0.000000000000000
        0.000000000000000
       -0.003120997478760
       -0.009655068432102
       -0.014363414160605
        0.003238957601967
        0.018387042257495
        0.010952488882477
        0.003383056602064
        0.000000000000000
        0.000000000000000
       -0.001510557878707
       -0.003856362273932
       -0.001563721389138
        0.013812584539243
        0.023626330103814
        0.012024081663164
        0.003464907421324
        0.000000000000000
        0.000000000000000
        0.000000000000000
       -0.000576791779918
        0.001683819736614
        0.007934967143685
        0.010899035846249
        0.006115383071848
        0.001790077544307
        0.000000000000000
        0.000000000000000
        0.000000000000000
        0.000000000000000
        0.000822099326322
        0.002388835613556
        0.002931258974274
        0.001669224354578
        0.000000000000000
        0.000000000000000
        0.000000000000000
        0.000000000000000
        0.000000000000000
        0.000000000000000
        0.000000000000000
        0.000000000000000
        0.000000000000000
        0.000000000000000
        0.000000000000000
        0.000000000000000
        0.000000000000000
        0.000000000000000
        0.000000000000000
        0.000000000000000
        0.000000000000000
        0.000000000000000
        0.000000000000000
        0.000000000000000
        0.000000000000000
        0.000000000000000
        0.000000000000000
       -0.000700574944502
       -0.000565114590840
        0.000000000000000
        0.000000000000000
        0.000000000000000
        0.000000000000000
        0.000000000000000
        0.000000000000000
       -0.001348111088632
       -0.002194369668511
       -0.001465442669031
       -0.000221800904391
        0.000000000000000
        0.000000000000000
        0.000000000000000
        0.000000000000000
       -0.000841132347819
       -0.002449654707192
       -0.003443314709756
       -0.001552271361805
        0.000834062854569
        0.001040648437350
        0.000000000000000
        0.000000000000000
        0.000000000000000
       -0.000791078919092
       -0.002085944273388
       -0.002266373490750
        0.000708864169104
        0.003295172574412
        0.002506559156111
        0.000890509549722
        0.000000000000000
        0.000000000000000
        0.000000000000000
       -0.000788207767500
       -0.000149467845001
        0.002590563659225
        0.004274254655336
        0.002815363247824
        0.000933312015719
        0.000000000000000
        0.000000000000000
        0.000000000000000
        0.000000000000000
        0.000481019114909
        0.001901374029867
        0.002569723913415
        0.001517098888692
        0.000000000000000
        0.000000000000000
        0.000000000000000
        0.000000000000000
        0.000000000000000
        0.000000000000000
        0.000672282949058
        0.000799449048424
        0.000000000000000
        0.000000000000000
        0.000000000000000
        0.000000000000000
        0.000000000000000
        0.000000000000000
        0.000000000000000
        0.000000000000000
        0.000000000000000
        0.000000000000000
        0.000000000000000
        0.000000000000000
        0.000000000000000
        0.000000000000000
        0.000000000000000
        0.000000000000000
        0.000000000000000
        0.000000000000000
        0.000000000000000
        0.000000000000000
        0.000000000000000
        0.000000000000000
        0.000000000000000
        0.000000000000000
        0.000000000000000
        0.000000000000000
        0.000000000000000
        0.000000000000000
        0.000000000000000
        0.000000000000000
        0.000000000000000
        0.000000000000000
        0.000000000000000
        0.000000000000000
        0.000000000000000
        0.000000000000000
        0.000000000000000
        0.000000000000000
        0.000000000000000
        0.000000000000000
        0.000000000000000
        0.000000000000000
       -0.000389018111361
       -0.000190167267870
        0.000000000000000
        0.000000000000000
        0.000000000000000
        0.000000000000000
        0.000000000000000
        0.000000000000000
        0.000000000000000
       -0.000259041113467
        0.000122233302932
        0.000422292954302
        0.000000000000000
        0.000000000000000
        0.000000000000000
        0.000000000000000
        0.000000000000000
        0.000000000000000
        0.000000000000000
        0.000354142746635
        0.000527771745099
        0.000000000000000
        0.000000000000000
        0.000000000000000
        0.000000000000000
        0.000000000000000
        0.000000000000000
        0.000000000000000
        0.000000000000000
        0.000000000000000
        0.000000000000000
        0.000000000000000
        0.000000000000000
        0.000000000000000
        0.000000000000000
        0.000000000000000
        0.000000000000000
        0.000000000000000
        0.000000000000000
        0.000000000000000
        0.000000000000000
        0.000000000000000
        0.000000000000000
        0.000000000000000
        0.000000000000000
        0.000000000000000
        0.000000000000000
        0.000000000000000
        0.000000000000000
        0.000000000000000
        0.000000000000000
END_DATAGRID_3D
END_BLOCK_DATAGRID_3D
