ATOMS
         C    7.558905    7.558905    7.558905
         H    8.755769    8.755769    8.755769
         H    6.362040    6.362040    8.755769
         H    8.755769    6.362040    6.362040
         H    6.362040    8.755769    6.362040
BEGIN_BLOCK_DATAGRID_3D
units: coords = b, function = sqrt(b^-3)
BEGIN_DATAGRID_3D_function
      9      9      9
0.0 0.0 0.0
   15.117809    0.000000    0.000000
    0.000000   15.117809    0.000000
    0.000000    0.000000   15.117809
        0.000000000000000
        0.000000000000000
        0.000000000000000
        0.000000000000000
        0.000000000000000
        0.000000000000000
        0.000000000000000
        0.000000000000000
        0.000000000000000
        0.000000000000000
        0.000000000000000
        0.000000000000000
        0.000000000000000
        0.000000000000000
        0.000000000000000
        0.000000000000000
        0.000000000000000
        0.000000000000000
        0.000000000000000
        0.000000000000000
        0.000000000000000
        0.000000000000000
        0.000000000000000
        0.000000000000000
        0.000000000000000
        0.000000000000000
        0.000000000000000
        0.000000000000000
        0.000000000000000
        0.000000000000000
        0.000000000000000
       -0.001127169147655
       -0.001089507078717
        0.000000000000000
        0.000000000000000
        0.000000000000000
        0.000000000000000
        0.000000000000000
        0.000000000000000
       -0.000675638459162
       -0.001314922001702
       -0.001088027650029
        0.000000000000000
        0.000000000000000
        0.000000000000000
        0.000000000000000
        0.000000000000000
        0.000000000000000
       -0.000413903921376
       -0.000636868191354
        0.000000000000000
        0.000000000000000
        0.000000000000000
        0.000000000000000
        0.000000000000000
        0.000000000000000
        0.000000000000000
        0.000000000000000
        0.000000000000000
        0.000000000000000
        0.000000000000000
        0.000000000000000
        0.000000000000000
        0.000000000000000
        0.000000000000000
        0.000000000000000
        0.000000000000000
        0.000000000000000
        0.000000000000000
        0.000000000000000
        0.000000000000000
        0.000000000000000
        0.000000000000000
        0.000000000000000
        0.000000000000000
        0.000000000000000
        0.000000000000000
        0.000000000000000
        0.000000000000000
        0.000000000000000
        0.000000000000000
        0.000000000000000
        0.000000000000000
        0.000000000000000
        0.000000000000000
        0.000000000000000
        0.000000000000000
        0.000000000000000
        0.000000000000000
        0.000000000000000
        0.000000000000000
        0.000000000000000
        0.000000000000000
        0.000000000000000
       -0.001180851681782
       -0.001185090074371
        0.000000000000000
        0.000000000000000
        0.000000000000000
        0.000000000000000
        0.000000000000000
        0.000000000000000
       -0.002017834455522
       -0.003991140613246
       -0.003982646410991
       -0.002011022946337
        0.000000000000000
        0.000000000000000
        0.000000000000000
        0.000000000000000
       -0.001082897353951
       -0.003977928584605
       -0.007581799447695
       -0.007385882404583
       -0.003836145136056
       -0.001104279279960
        0.000000000000000
        0.000000000000000
       -0.000103157176553
       -0.001053422854805
       -0.004002328332148
       -0.007630255088057
       -0.007173038951078
       -0.003635961238134
       -0.001051761936820
        0.000000000000000
        0.000000000000000
        0.000023520957976
       -0.000284094380142
       -0.001697245387790
       -0.003599016214243
       -0.003415603659263
       -0.001694700448631
        0.000000000000000
        0.000000000000000
        0.000000000000000
        0.000000000000000
        0.000100629814208
       -0.000143132722160
       -0.000706928009311
       -0.000763487283137
        0.000000000000000
        0.000000000000000
        0.000000000000000
        0.000000000000000
        0.000000000000000
        0.000000000000000
        0.000100457525032
        0.000021714270697
        0.000000000000000
        0.000000000000000
        0.000000000000000
        0.000000000000000
        0.000000000000000
        0.000000000000000
        0.000000000000000
        0.000000000000000
        0.000000000000000
        0.000000000000000
        0.000000000000000
        0.000000000000000
        0.000000000000000
        0.000000000000000
        0.000000000000000
        0.000000000000000
        0.000000000000000
        0.000000000000000
        0.000000000000000
        0.000000000000000
        0.000000000000000
        0.000000000000000
        0.000000000000000
        0.000000000000000
        0.000000000000000
       -0.001954410835366
       -0.003900497482129
       -0.003915419226282
       -0.001982735325297
        0.000000000000000
        0.000000000000000
        0.000000000000000
        0.000000000000000
       -0.001734552858620
       -0.007079438913887
       -0.014673827814707
       -0.014897013238999
       -0.007254687381558
       -0.001909945663069
        0.000000000000000
        0.000000000000000
       -0.000235308694645
       -0.002995148825135
       -0.013998428901930
       -0.033669474103146
       -0.033809870718358
       -0.014240696027427
       -0.003598374945744
        0.000000000000000
        0.000000000000000
        0.000160474448719
       -0.001702516832325
       -0.012882642799390
       -0.034936246879099
       -0.031057831961528
       -0.012930430749839
       -0.003318484724031
        0.000000000000000
        0.000000000000000
        0.000618647130366
        0.001161904391541
       -0.001297458263107
       -0.010296014334841
       -0.010929443279129
       -0.005407016803745
       -0.001474063279665
        0.000000000000000
        0.000000000000000
        0.000481468166607
        0.001390345097590
        0.001800900563392
        0.000008496587895
       -0.001338607385746
       -0.000944732384902
        0.000000000000000
        0.000000000000000
        0.000000000000000
        0.000000000000000
        0.000550502387074
        0.000922776070694
        0.000725369153260
        0.000235985585870
        0.000000000000000
        0.000000000000000
        0.000000000000000
        0.000000000000000
        0.000000000000000
        0.000000000000000
        0.000000000000000
        0.000000000000000
        0.000000000000000
        0.000000000000000
        0.000000000000000
        0.000000000000000
        0.000000000000000
        0.000000000000000
        0.000000000000000
        0.000000000000000
       -0.001048350654149
       -0.001027477835077
        0.000000000000000
        0.000000000000000
        0.000000000000000
        0.000000000000000
        0.000000000000000
       -0.000943340890208
       -0.003649497788532
       -0.007142334464709
       -0.007076013949823
       -0.003712019799350
       -0.001073093386950
        0.000000000000000
        0.000000000000000
       -0.000159160344124
       -0.002663358410349
       -0.013131920554773
       -0.032418513403877
       -0.033036251895665
       -0.013980998241732
       -0.003541466415092
        0.000000000000000
        0.000000000000000
        0.000406374576358
       -0.002441127833751
       -0.026406012343072
       -0.095028130164946
       -0.100427247863397
       -0.031113991219119
       -0.006293753597157
       -0.000870477022604
        0.000380656645230
        0.001878948748439
        0.003836195335141
       -0.013714257800570
       -0.092670063611415
       -0.082862529611234
       -0.026717294583057
       -0.005638171801704
       -0.000811567850858
        0.000418552848800
        0.002460772379352
        0.009066216466220
        0.019188254374295
       -0.001633588534591
       -0.014437498483069
       -0.007935856665460
       -0.002277791837002
        0.000000000000000
        0.000000000000000
        0.001527107592294
        0.005291446977527
        0.010960898821223
        0.009469320859435
        0.002721248727531
       -0.000198331056230
       -0.000282854698225
        0.000000000000000
        0.000000000000000
        0.000521348157888
        0.001690470691306
        0.003215099629839
        0.003344980672264
        0.001756483447557
        0.000496299172262
        0.000000000000000
        0.000000000000000
        0.000000000000000
        0.000000000000000
        0.000000000000000
        0.000568821137844
        0.000609964822829
        0.000000000000000
        0.000000000000000
        0.000000000000000
        0.000000000000000
        0.000000000000000
        0.000000000000000
        0.000000000000000
       -0.000559934609290
       -0.001158341330168
       -0.000993644205620
        0.000000000000000
        0.000000000000000
        0.000000000000000
        0.000000000000000
       -0.000015351276018
       -0.000723427967773
       -0.003271141201002
       -0.006721651904491
       -0.006572585984579
       -0.003406155678652
       -0.001001298107871
        0.000000000000000
        0.000000000000000
        0.000399904227584
       -0.000648183195712
       -0.009942381755987
       -0.030775613670038
       -0.028760611145732
       -0.012237093061845
       -0.003179278305568
        0.000000000000000
        0.000417571294238
        0.002170937366911
        0.005525488380573
       -0.007119837983295
       -0.081632635541354
       -0.077937892993580
       -0.025670962727641
       -0.005477106710637
       -0.000796013780153
        0.000780298148470
        0.004519222837717
        0.020636903516276
        0.054723259953475
        0.000008757775629
       -0.054490447767023
       -0.020530864297975
       -0.004470529708280
       -0.000768762537618
        0.000628946515704
        0.004451343172662
        0.020456312482138
        0.064228429886491
        0.081698697381465
        0.021091269842834
       -0.000160462977762
       -0.001073944686725
       -0.000235710463591
        0.000000000000000
        0.002382586871284
        0.009320253494355
        0.023504639772147
        0.030794350579585
        0.015265631647835
        0.003625657642597
        0.000426054838832
        0.000000000000000
        0.000000000000000
        0.000702127173197
        0.002601810047800
        0.005515621957167
        0.006724364469283
        0.004340148798318
        0.001542424638020
        0.000321672513464
        0.000000000000000
        0.000000000000000
        0.000000000000000
        0.000000000000000
        0.000819365346937
        0.001158716786119
        0.000735298286207
        0.000000000000000
        0.000000000000000
        0.000000000000000
        0.000000000000000
        0.000000000000000
        0.000000000000000
       -0.000296745859935
       -0.000505599876475
        0.000000000000000
        0.000000000000000
        0.000000000000000
        0.000000000000000
        0.000000000000000
        0.000122017501347
        0.000084700651894
       -0.000923486005276
       -0.002707016403772
       -0.002864038705078
       -0.001503433399707
        0.000000000000000
        0.000000000000000
        0.000000000000000
        0.000920349403973
        0.002468260545675
        0.002120577971994
       -0.006309920450752
       -0.008828969723432
       -0.004738396117751
       -0.001346176887124
        0.000000000000000
        0.000473790758263
        0.002925176612848
        0.011710215157455
        0.028899909260815
        0.009885453487394
       -0.009576177594108
       -0.006701715288567
       -0.002054430063829
        0.000000000000000
        0.000665861164711
        0.004743331791134
        0.022145605527570
        0.070822849703767
        0.092736125451525
        0.026015906460487
        0.000885868877654
       -0.000912879595658
       -0.000220156392886
        0.000000000000000
        0.003971750789605
        0.017176694402137
        0.050541420752160
        0.086872643707123
        0.052556813721698
        0.010457822031067
        0.000966119846413
       -0.000009257138404
        0.000000000000000
        0.001805110277741
        0.007637087230582
        0.019274305619464
        0.029284677331460
        0.020016557676657
        0.006274603672321
        0.001119866010931
        0.000000000000000
        0.000000000000000
        0.000000000000000
        0.001957845019767
        0.004763812694437
        0.006508626223194
        0.004795937598465
        0.001950628239695
        0.000436440854221
        0.000000000000000
        0.000000000000000
        0.000000000000000
        0.000000000000000
        0.000000000000000
        0.000944409729331
        0.000756460527242
        0.000000000000000
        0.000000000000000
        0.000000000000000
        0.000000000000000
        0.000000000000000
        0.000000000000000
        0.000000000000000
        0.000000000000000
        0.000000000000000
        0.000000000000000
        0.000000000000000
        0.000000000000000
        0.000000000000000
        0.000000000000000
        0.000301180741119
        0.000282385559108
       -0.000238027471206
       -0.000496174895855
        0.000000000000000
        0.000000000000000
        0.000000000000000
        0.000000000000000
        0.000653832037329
        0.002094381749173
        0.003366659278961
        0.001755471892195
       -0.000338499247281
       -0.000626903387256
        0.000000000000000
        0.000000000000000
        0.000000000000000
        0.001828809865901
        0.006597803131661
        0.014378935056324
        0.013455414743524
        0.004821722283227
        0.000470289629764
       -0.000154968305684
        0.000000000000000
        0.000000000000000
        0.002622016650150
        0.010374587130968
        0.026444900815550
        0.034954983788646
        0.017562852463630
        0.004318995330591
        0.000565261257295
        0.000000000000000
        0.000000000000000
        0.001881258628263
        0.007968877645368
        0.020140813966621
        0.030535638030730
        0.020790176499349
        0.006534301458017
        0.001176774541583
        0.000000000000000
        0.000000000000000
        0.000000000000000
        0.003317552259370
        0.008767424482087
        0.012918721584221
        0.009754306465481
        0.003795571078613
        0.000786408973141
        0.000000000000000
        0.000000000000000
        0.000000000000000
        0.000000000000000
        0.002216194625710
        0.003415097661161
        0.002716115616359
        0.001137123604090
        0.000000000000000
        0.000000000000000
        0.000000000000000
        0.000000000000000
        0.000000000000000
        0.000000000000000
        0.000000000000000
        0.000000000000000
        0.000000000000000
        0.000000000000000
        0.000000000000000
        0.000000000000000
        0.000000000000000
        0.000000000000000
        0.000000000000000
        0.000000000000000
        0.000000000000000
        0.000000000000000
        0.000000000000000
        0.000000000000000
        0.000000000000000
        0.000000000000000
        0.000000000000000
        0.000230012303345
        0.000159895191273
        0.000000000000000
        0.000000000000000
        0.000000000000000
        0.000000000000000
        0.000000000000000
        0.000000000000000
        0.000751053313985
        0.001348294351962
        0.001194269691365
        0.000503297973152
        0.000000000000000
        0.000000000000000
        0.000000000000000
        0.000000000000000
        0.000619844701259
        0.002059265723342
        0.003988859012353
        0.004236980482735
        0.002308048401741
        0.000687566221186
        0.000000000000000
        0.000000000000000
        0.000000000000000
        0.000789933073732
        0.002931804934832
        0.006246809088313
        0.007632967652849
        0.004940601764817
        0.001772230197502
        0.000372136342413
        0.000000000000000
        0.000000000000000
        0.000000000000000
        0.002097401483510
        0.005092243490510
        0.006948091206181
        0.005105806053225
        0.002074753576401
        0.000467626747231
        0.000000000000000
        0.000000000000000
        0.000000000000000
        0.000000000000000
        0.002279618245867
        0.003505740792279
        0.002783342801068
        0.001165411225130
        0.000000000000000
        0.000000000000000
        0.000000000000000
        0.000000000000000
        0.000000000000000
        0.000000000000000
        0.000999743488132
        0.000855872318030
        0.000000000000000
        0.000000000000000
        0.000000000000000
        0.000000000000000
        0.000000000000000
        0.000000000000000
        0.000000000000000
        0.000000000000000
        0.000000000000000
        0.000000000000000
        0.000000000000000
        0.000000000000000
        0.000000000000000
        0.000000000000000
        0.000000000000000
        0.000000000000000
        0.000000000000000
        0.000000000000000
        0.000000000000000
        0.000000000000000
        0.000000000000000
        0.000000000000000
        0.000000000000000
        0.000000000000000
        0.000000000000000
        0.000000000000000
        0.000000000000000
        0.000000000000000
        0.000000000000000
        0.000000000000000
        0.000000000000000
        0.000000000000000
        0.000000000000000
        0.000000000000000
        0.000000000000000
        0.000000000000000
        0.000000000000000
        0.000000000000000
        0.000000000000000
        0.000000000000000
        0.000000000000000
        0.000000000000000
        0.000685979199285
        0.000741233137708
        0.000000000000000
        0.000000000000000
        0.000000000000000
        0.000000000000000
        0.000000000000000
        0.000000000000000
        0.000000000000000
        0.000935069196808
        0.001315297457653
        0.000829681730617
        0.000000000000000
        0.000000000000000
        0.000000000000000
        0.000000000000000
        0.000000000000000
        0.000000000000000
        0.000000000000000
        0.001023228222836
        0.000818489770883
        0.000000000000000
        0.000000000000000
        0.000000000000000
        0.000000000000000
        0.000000000000000
        0.000000000000000
        0.000000000000000
        0.000000000000000
        0.000000000000000
        0.000000000000000
        0.000000000000000
        0.000000000000000
        0.000000000000000
        0.000000000000000
        0.000000000000000
        0.000000000000000
        0.000000000000000
        0.000000000000000
        0.000000000000000
        0.000000000000000
        0.000000000000000
        0.000000000000000
        0.000000000000000
        0.000000000000000
        0.000000000000000
        0.000000000000000
        0.000000000000000
        0.000000000000000
        0.000000000000000
        0.000000000000000
END_DATAGRID_3D
END_BLOCK_DATAGRID_3D
