ATOMS
         C    7.558905    7.558905    7.558905
         H    8.755769    8.755769    8.755769
         H    6.362040    6.362040    8.755769
         H    8.755769    6.362040    6.362040
         H    6.362040    8.755769    6.362040
BEGIN_BLOCK_DATAGRID_3D
units: coords = b, function = 1/hbar/H*b^-2
BEGIN_DATAGRID_3D_function
      9      9      9
0.0 0.0 0.0
   15.117809    0.000000    0.000000
    0.000000   15.117809    0.000000
    0.000000    0.000000   15.117809
        0.000000000000000
        0.000000000000000
        0.000000000000000
        0.000000000000000
        0.000000000000000
        0.000000000000000
        0.000000000000000
        0.000000000000000
        0.000000000000000
        0.000000000000000
        0.000000000000000
        0.000000000000000
        0.000000000000000
        0.000000000000000
        0.000000000000000
        0.000000000000000
        0.000000000000000
        0.000000000000000
        0.000000000000000
        0.000000000000000
        0.000000000000000
        0.000000000000000
        0.000000000000000
        0.000000000000000
        0.000000000000000
        0.000000000000000
        0.000000000000000
        0.000000000000000
        0.000000000000000
        0.000000000000000
        0.000000000000000
       -0.000000000000085
       -0.000000000000024
        0.000000000000000
        0.000000000000000
        0.000000000000000
        0.000000000000000
        0.000000000000000
        0.000000000000000
        0.000000000000089
       -0.000000000000980
       -0.000000000000024
        0.000000000000000
        0.000000000000000
        0.000000000000000
        0.000000000000000
        0.000000000000000
        0.000000000000000
        0.000000000000089
       -0.000000000000577
        0.000000000000000
        0.000000000000000
        0.000000000000000
        0.000000000000000
        0.000000000000000
        0.000000000000000
        0.000000000000000
        0.000000000000000
        0.000000000000000
        0.000000000000000
        0.000000000000000
        0.000000000000000
        0.000000000000000
        0.000000000000000
        0.000000000000000
        0.000000000000000
        0.000000000000000
        0.000000000000000
        0.000000000000000
        0.000000000000000
        0.000000000000000
        0.000000000000000
        0.000000000000000
        0.000000000000000
        0.000000000000000
        0.000000000000000
        0.000000000000000
        0.000000000000000
        0.000000000000000
        0.000000000000000
        0.000000000000000
        0.000000000000000
        0.000000000000000
        0.000000000000000
        0.000000000000000
        0.000000000000000
        0.000000000000000
        0.000000000000000
        0.000000000000000
        0.000000000000000
        0.000000000000000
        0.000000000000000
        0.000000000000000
        0.000000000000000
       -0.000000000000344
        0.000000000001095
        0.000000000000000
        0.000000000000000
        0.000000000000000
        0.000000000000000
        0.000000000000000
        0.000000000000000
       -0.000000000001879
        0.000000000000747
       -0.000000000000294
        0.000000000001161
        0.000000000000000
        0.000000000000000
        0.000000000000000
        0.000000000000000
       -0.000000000001295
       -0.000000000001270
        0.000000000001450
        0.000000000000212
        0.000000000001067
       -0.000000000000016
        0.000000000000000
        0.000000000000000
        0.000000000000007
       -0.000000000001252
       -0.000000000001220
       -0.000000000000759
        0.000000000002671
       -0.000000000001042
       -0.000000000000016
        0.000000000000000
        0.000000000000000
        0.000000000000007
        0.000000000000848
       -0.000000000002462
        0.000000000000330
       -0.000000000001705
       -0.000000000000144
        0.000000000000000
        0.000000000000000
        0.000000000000000
        0.000000000000000
        0.000000000000047
        0.000000000001392
       -0.000000000002017
       -0.000000000000427
        0.000000000000000
        0.000000000000000
        0.000000000000000
        0.000000000000000
        0.000000000000000
        0.000000000000000
        0.000000000000104
       -0.000000000000967
        0.000000000000000
        0.000000000000000
        0.000000000000000
        0.000000000000000
        0.000000000000000
        0.000000000000000
        0.000000000000000
        0.000000000000000
        0.000000000000000
        0.000000000000000
        0.000000000000000
        0.000000000000000
        0.000000000000000
        0.000000000000000
        0.000000000000000
        0.000000000000000
        0.000000000000000
        0.000000000000000
        0.000000000000000
        0.000000000000000
        0.000000000000000
        0.000000000000000
        0.000000000000000
        0.000000000000000
        0.000000000000000
       -0.000000000002542
        0.000000000002093
       -0.000000000001586
        0.000000000002052
        0.000000000000000
        0.000000000000000
        0.000000000000000
        0.000000000000000
       -0.000000000004532
        0.000000000001626
       -0.000000000000423
        0.000000000002317
       -0.000000000002899
        0.000000000000780
        0.000000000000000
        0.000000000000000
       -0.000000000000831
       -0.000000000001018
        0.000000000014381
       -0.000000000000451
       -0.000000000011663
       -0.000000000001238
        0.000000000000382
        0.000000000000000
        0.000000000000000
       -0.000000000000562
       -0.000000000000174
       -0.000000000008331
       -0.000000000022087
       -0.000000000008733
        0.000000000006032
       -0.000000000000354
        0.000000000000000
        0.000000000000000
        0.000000000000163
       -0.000000000007465
       -0.000000000035605
       -0.000000000016909
        0.000000000012526
       -0.000000000001398
        0.000000000000319
        0.000000000000000
        0.000000000000000
       -0.000000000000335
        0.000000000001683
       -0.000000000015211
        0.000000000006277
       -0.000000000000876
        0.000000000000277
        0.000000000000000
        0.000000000000000
        0.000000000000000
        0.000000000000000
       -0.000000000000040
        0.000000000000947
       -0.000000000001207
       -0.000000000000767
        0.000000000000000
        0.000000000000000
        0.000000000000000
        0.000000000000000
        0.000000000000000
        0.000000000000000
        0.000000000000000
        0.000000000000000
        0.000000000000000
        0.000000000000000
        0.000000000000000
        0.000000000000000
        0.000000000000000
        0.000000000000000
        0.000000000000000
        0.000000000000000
       -0.000000000000775
        0.000000000000082
        0.000000000000000
        0.000000000000000
        0.000000000000000
        0.000000000000000
        0.000000000000000
       -0.000000000001823
       -0.000000000001653
       -0.000000000008279
        0.000000000005969
        0.000000000003361
        0.000000000000112
        0.000000000000000
        0.000000000000000
       -0.000000000000393
       -0.000000000004382
        0.000000000065738
        0.000000000121004
       -0.000000000027796
       -0.000000000073823
        0.000000000004769
        0.000000000000000
        0.000000000000000
       -0.000000000004649
        0.000000000062615
        0.000000000193837
       -0.000000000594196
       -0.000000000879206
       -0.000000000032000
        0.000000000004680
       -0.000000000000004
        0.000000000000109
       -0.000000000012519
        0.000000000139993
       -0.000000000225983
       -0.000000000920303
       -0.000000000567436
        0.000000000139715
       -0.000000000008636
       -0.000000000000004
        0.000000000000109
        0.000000000002002
       -0.000000000055973
       -0.000000000567025
       -0.000000000137175
        0.000000000267635
        0.000000000060786
       -0.000000000005090
        0.000000000000000
        0.000000000000000
        0.000000000006449
       -0.000000000091304
       -0.000000000149745
        0.000000000144405
        0.000000000075094
       -0.000000000006891
        0.000000000001059
        0.000000000000000
        0.000000000000000
       -0.000000000000879
        0.000000000005893
        0.000000000003318
       -0.000000000008861
       -0.000000000004499
       -0.000000000000048
        0.000000000000000
        0.000000000000000
        0.000000000000000
        0.000000000000000
        0.000000000000000
        0.000000000001076
       -0.000000000000850
        0.000000000000000
        0.000000000000000
        0.000000000000000
        0.000000000000000
        0.000000000000000
        0.000000000000000
        0.000000000000000
       -0.000000000000242
       -0.000000000001392
        0.000000000000316
        0.000000000000000
        0.000000000000000
        0.000000000000000
        0.000000000000000
        0.000000000000453
        0.000000000000382
       -0.000000000016462
        0.000000000013919
        0.000000000017048
        0.000000000002917
        0.000000000000169
        0.000000000000000
        0.000000000000000
       -0.000000000000687
        0.000000000024841
        0.000000000305637
       -0.000000000249327
       -0.000000000329136
       -0.000000000031545
        0.000000000003454
        0.000000000000000
        0.000000000000349
       -0.000000000015909
        0.000000000277334
        0.000000001198022
       -0.000000001230752
       -0.000000001655599
       -0.000000000261035
        0.000000000017053
        0.000000000000144
       -0.000000000000000
        0.000000000000000
       -0.000000000000000
        0.000000000000000
        0.000000000000000
       -0.000000000000000
       -0.000000000000000
        0.000000000000000
       -0.000000000000000
       -0.000000000000349
        0.000000000015909
       -0.000000000277334
       -0.000000001198022
        0.000000001230752
        0.000000001655599
        0.000000000261035
       -0.000000000017053
       -0.000000000000144
        0.000000000000000
        0.000000000000687
       -0.000000000024841
       -0.000000000305637
        0.000000000249327
        0.000000000329136
        0.000000000031545
       -0.000000000003454
        0.000000000000000
        0.000000000000000
       -0.000000000000453
       -0.000000000000382
        0.000000000016462
       -0.000000000013919
       -0.000000000017048
       -0.000000000002917
       -0.000000000000169
        0.000000000000000
        0.000000000000000
        0.000000000000000
        0.000000000000000
        0.000000000000242
        0.000000000001392
       -0.000000000000316
        0.000000000000000
        0.000000000000000
        0.000000000000000
        0.000000000000000
        0.000000000000000
        0.000000000000000
       -0.000000000001076
        0.000000000000850
        0.000000000000000
        0.000000000000000
        0.000000000000000
        0.000000000000000
        0.000000000000000
        0.000000000000879
       -0.000000000005893
       -0.000000000003318
        0.000000000008861
        0.000000000004499
        0.000000000000048
        0.000000000000000
        0.000000000000000
        0.000000000000000
       -0.000000000006449
        0.000000000091304
        0.000000000149745
       -0.000000000144405
       -0.000000000075094
        0.000000000006891
       -0.000000000001059
        0.000000000000000
       -0.000000000000109
       -0.000000000002002
        0.000000000055973
        0.000000000567025
        0.000000000137175
       -0.000000000267635
       -0.000000000060786
        0.000000000005090
        0.000000000000000
       -0.000000000000109
        0.000000000012519
       -0.000000000139993
        0.000000000225983
        0.000000000920303
        0.000000000567436
       -0.000000000139715
        0.000000000008636
        0.000000000000004
        0.000000000000000
        0.000000000004649
       -0.000000000062615
       -0.000000000193837
        0.000000000594196
        0.000000000879206
        0.000000000032000
       -0.000000000004680
        0.000000000000004
        0.000000000000000
        0.000000000000393
        0.000000000004382
       -0.000000000065738
       -0.000000000121004
        0.000000000027796
        0.000000000073823
       -0.000000000004769
        0.000000000000000
        0.000000000000000
        0.000000000000000
        0.000000000001823
        0.000000000001653
        0.000000000008279
       -0.000000000005969
       -0.000000000003361
       -0.000000000000112
        0.000000000000000
        0.000000000000000
        0.000000000000000
        0.000000000000000
        0.000000000000000
        0.000000000000775
       -0.000000000000082
        0.000000000000000
        0.000000000000000
        0.000000000000000
        0.000000000000000
        0.000000000000000
        0.000000000000000
        0.000000000000000
        0.000000000000000
        0.000000000000000
        0.000000000000000
        0.000000000000000
        0.000000000000000
        0.000000000000000
        0.000000000000000
        0.000000000000040
       -0.000000000000947
        0.000000000001207
        0.000000000000767
        0.000000000000000
        0.000000000000000
        0.000000000000000
        0.000000000000000
        0.000000000000335
       -0.000000000001683
        0.000000000015211
       -0.000000000006277
        0.000000000000876
       -0.000000000000277
        0.000000000000000
        0.000000000000000
        0.000000000000000
       -0.000000000000163
        0.000000000007465
        0.000000000035605
        0.000000000016909
       -0.000000000012526
        0.000000000001398
       -0.000000000000319
        0.000000000000000
        0.000000000000000
        0.000000000000562
        0.000000000000174
        0.000000000008331
        0.000000000022087
        0.000000000008733
       -0.000000000006032
        0.000000000000354
        0.000000000000000
        0.000000000000000
        0.000000000000831
        0.000000000001018
       -0.000000000014381
        0.000000000000451
        0.000000000011663
        0.000000000001238
       -0.000000000000382
        0.000000000000000
        0.000000000000000
        0.000000000000000
        0.000000000004532
       -0.000000000001626
        0.000000000000423
       -0.000000000002317
        0.000000000002899
       -0.000000000000780
        0.000000000000000
        0.000000000000000
        0.000000000000000
        0.000000000000000
        0.000000000002542
       -0.000000000002093
        0.000000000001586
       -0.000000000002052
        0.000000000000000
        0.000000000000000
        0.000000000000000
        0.000000000000000
        0.000000000000000
        0.000000000000000
        0.000000000000000
        0.000000000000000
        0.000000000000000
        0.000000000000000
        0.000000000000000
        0.000000000000000
        0.000000000000000
        0.000000000000000
        0.000000000000000
        0.000000000000000
        0.000000000000000
        0.000000000000000
        0.000000000000000
        0.000000000000000
        0.000000000000000
        0.000000000000000
        0.000000000000000
       -0.000000000000104
        0.000000000000967
        0.000000000000000
        0.000000000000000
        0.000000000000000
        0.000000000000000
        0.000000000000000
        0.000000000000000
       -0.000000000000047
       -0.000000000001392
        0.000000000002017
        0.000000000000427
        0.000000000000000
        0.000000000000000
        0.000000000000000
        0.000000000000000
       -0.000000000000007
       -0.000000000000848
        0.000000000002462
       -0.000000000000330
        0.000000000001705
        0.000000000000144
        0.000000000000000
        0.000000000000000
        0.000000000000000
       -0.000000000000007
        0.000000000001252
        0.000000000001220
        0.000000000000759
       -0.000000000002671
        0.000000000001042
        0.000000000000016
        0.000000000000000
        0.000000000000000
        0.000000000000000
        0.000000000001295
        0.000000000001270
       -0.000000000001450
       -0.000000000000212
       -0.000000000001067
        0.000000000000016
        0.000000000000000
        0.000000000000000
        0.000000000000000
        0.000000000000000
        0.000000000001879
       -0.000000000000747
        0.000000000000294
       -0.000000000001161
        0.000000000000000
        0.000000000000000
        0.000000000000000
        0.000000000000000
        0.000000000000000
        0.000000000000000
        0.000000000000344
       -0.000000000001095
        0.000000000000000
        0.000000000000000
        0.000000000000000
        0.000000000000000
        0.000000000000000
        0.000000000000000
        0.000000000000000
        0.000000000000000
        0.000000000000000
        0.000000000000000
        0.000000000000000
        0.000000000000000
        0.000000000000000
        0.000000000000000
        0.000000000000000
        0.000000000000000
        0.000000000000000
        0.000000000000000
        0.000000000000000
        0.000000000000000
        0.000000000000000
        0.000000000000000
        0.000000000000000
        0.000000000000000
        0.000000000000000
        0.000000000000000
        0.000000000000000
        0.000000000000000
        0.000000000000000
        0.000000000000000
        0.000000000000000
        0.000000000000000
        0.000000000000000
        0.000000000000000
        0.000000000000000
        0.000000000000000
        0.000000000000000
        0.000000000000000
        0.000000000000000
        0.000000000000000
        0.000000000000000
        0.000000000000000
       -0.000000000000089
        0.000000000000577
        0.000000000000000
        0.000000000000000
        0.000000000000000
        0.000000000000000
        0.000000000000000
        0.000000000000000
        0.000000000000000
       -0.000000000000089
        0.000000000000980
        0.000000000000024
        0.000000000000000
        0.000000000000000
        0.000000000000000
        0.000000000000000
        0.000000000000000
        0.000000000000000
        0.000000000000000
        0.000000000000085
        0.000000000000024
        0.000000000000000
        0.000000000000000
        0.000000000000000
        0.000000000000000
        0.000000000000000
        0.000000000000000
        0.000000000000000
        0.000000000000000
        0.000000000000000
        0.000000000000000
        0.000000000000000
        0.000000000000000
        0.000000000000000
        0.000000000000000
        0.000000000000000
        0.000000000000000
        0.000000000000000
        0.000000000000000
        0.000000000000000
        0.000000000000000
        0.000000000000000
        0.000000000000000
        0.000000000000000
        0.000000000000000
        0.000000000000000
        0.000000000000000
        0.000000000000000
        0.000000000000000
        0.000000000000000
        0.000000000000000
END_DATAGRID_3D
END_BLOCK_DATAGRID_3D
