ATOMS
         C    7.558905    7.558905    7.558905
         H    8.755769    8.755769    8.755769
         H    6.362040    6.362040    8.755769
         H    8.755769    6.362040    6.362040
         H    6.362040    8.755769    6.362040
BEGIN_BLOCK_DATAGRID_3D
units: coords = b, function = sqrt(b^-3)
BEGIN_DATAGRID_3D_function
      9      9      9
0.0 0.0 0.0
   15.117809    0.000000    0.000000
    0.000000   15.117809    0.000000
    0.000000    0.000000   15.117809
        0.000000000000000
        0.000000000000000
        0.000000000000000
        0.000000000000000
        0.000000000000000
        0.000000000000000
        0.000000000000000
        0.000000000000000
        0.000000000000000
        0.000000000000000
        0.000000000000000
        0.000000000000000
        0.000000000000000
        0.000000000000000
        0.000000000000000
        0.000000000000000
        0.000000000000000
        0.000000000000000
        0.000000000000000
        0.000000000000000
        0.000000000000000
        0.000000000000000
        0.000000000000000
        0.000000000000000
        0.000000000000000
        0.000000000000000
        0.000000000000000
        0.000000000000000
        0.000000000000000
        0.000000000000000
        0.000000000000000
       -0.000008902743913
        0.000003374707022
        0.000000000000000
        0.000000000000000
        0.000000000000000
        0.000000000000000
        0.000000000000000
        0.000000000000000
       -0.000019667186924
       -0.000008245312283
        0.000008666696636
        0.000000000000000
        0.000000000000000
        0.000000000000000
        0.000000000000000
        0.000000000000000
        0.000000000000000
       -0.000012771996256
       -0.000002159316073
        0.000000000000000
        0.000000000000000
        0.000000000000000
        0.000000000000000
        0.000000000000000
        0.000000000000000
        0.000000000000000
        0.000000000000000
        0.000000000000000
        0.000000000000000
        0.000000000000000
        0.000000000000000
        0.000000000000000
        0.000000000000000
        0.000000000000000
        0.000000000000000
        0.000000000000000
        0.000000000000000
        0.000000000000000
        0.000000000000000
        0.000000000000000
        0.000000000000000
        0.000000000000000
        0.000000000000000
        0.000000000000000
        0.000000000000000
        0.000000000000000
        0.000000000000000
        0.000000000000000
        0.000000000000000
        0.000000000000000
        0.000000000000000
        0.000000000000000
        0.000000000000000
        0.000000000000000
        0.000000000000000
        0.000000000000000
        0.000000000000000
        0.000000000000000
        0.000000000000000
        0.000000000000000
        0.000000000000000
        0.000000000000000
        0.000000000000000
       -0.000019230958046
       -0.000006577509597
        0.000000000000000
        0.000000000000000
        0.000000000000000
        0.000000000000000
        0.000000000000000
        0.000000000000000
       -0.000069530852651
       -0.000058173701255
       -0.000000849264427
        0.000019336472219
        0.000000000000000
        0.000000000000000
        0.000000000000000
        0.000000000000000
       -0.000091605190865
       -0.000148861602244
       -0.000083162475569
        0.000039621665299
        0.000063638139453
        0.000028810136614
        0.000000000000000
        0.000000000000000
       -0.000044676648162
       -0.000127795689993
       -0.000168360025779
       -0.000047846985622
        0.000098827072645
        0.000099319652447
        0.000037942774640
        0.000000000000000
        0.000000000000000
       -0.000035205459173
       -0.000088890051076
       -0.000096347903974
        0.000013048952109
        0.000103049282673
        0.000074897948646
        0.000000000000000
        0.000000000000000
        0.000000000000000
        0.000000000000000
       -0.000031139382744
       -0.000025013066440
        0.000028710655163
        0.000052364867293
        0.000000000000000
        0.000000000000000
        0.000000000000000
        0.000000000000000
        0.000000000000000
        0.000000000000000
       -0.000000248903414
        0.000011958422938
        0.000000000000000
        0.000000000000000
        0.000000000000000
        0.000000000000000
        0.000000000000000
        0.000000000000000
        0.000000000000000
        0.000000000000000
        0.000000000000000
        0.000000000000000
        0.000000000000000
        0.000000000000000
        0.000000000000000
        0.000000000000000
        0.000000000000000
        0.000000000000000
        0.000000000000000
        0.000000000000000
        0.000000000000000
        0.000000000000000
        0.000000000000000
        0.000000000000000
        0.000000000000000
        0.000000000000000
        0.000000000000000
       -0.000092362609374
       -0.000090919091857
       -0.000025230024793
        0.000009039411021
        0.000000000000000
        0.000000000000000
        0.000000000000000
        0.000000000000000
       -0.000186492025809
       -0.000353337520904
       -0.000281491680529
        0.000004476624002
        0.000085249530195
        0.000041121374534
        0.000000000000000
        0.000000000000000
       -0.000132675021915
       -0.000449574299025
       -0.000771207721180
       -0.000478458811719
        0.000278850309428
        0.000298184688441
        0.000115369208067
        0.000000000000000
        0.000000000000000
       -0.000186577589228
       -0.000588566126859
       -0.000972741838595
       -0.000219097581697
        0.000700623062552
        0.000501318151666
        0.000168979264453
        0.000000000000000
        0.000000000000000
       -0.000132574773469
       -0.000377559308291
       -0.000497670423288
        0.000202705007850
        0.000617899082956
        0.000400523749031
        0.000123585780707
        0.000000000000000
        0.000000000000000
       -0.000049563227401
       -0.000121307170479
       -0.000086590320099
        0.000189507434127
        0.000302016995666
        0.000171256793821
        0.000000000000000
        0.000000000000000
        0.000000000000000
        0.000000000000000
       -0.000017955117074
        0.000006339695033
        0.000071003374224
        0.000081981819548
        0.000000000000000
        0.000000000000000
        0.000000000000000
        0.000000000000000
        0.000000000000000
        0.000000000000000
        0.000000000000000
        0.000000000000000
        0.000000000000000
        0.000000000000000
        0.000000000000000
        0.000000000000000
        0.000000000000000
        0.000000000000000
        0.000000000000000
        0.000000000000000
       -0.000037392249574
       -0.000019112093516
        0.000000000000000
        0.000000000000000
        0.000000000000000
        0.000000000000000
        0.000000000000000
       -0.000141642615194
       -0.000267052047379
       -0.000241919516910
       -0.000072747527079
        0.000018448580902
        0.000017411389549
        0.000000000000000
        0.000000000000000
       -0.000159870930873
       -0.000568532543696
       -0.001083090279282
       -0.000930356461890
       -0.000001624452980
        0.000203657454829
        0.000094568363994
        0.000000000000000
        0.000000000000000
       -0.000361849773583
       -0.001334506701493
       -0.002852528834645
       -0.002099104117573
        0.001175486223261
        0.000871701762328
        0.000277584309852
        0.000051084845588
       -0.000070811119208
       -0.000453965828163
       -0.001787463508736
       -0.004030697168287
       -0.000581232750584
        0.003440452050364
        0.001658435586193
        0.000435940138796
        0.000069272311436
       -0.000053070279678
       -0.000298161504474
       -0.001002467608207
       -0.001679973043309
        0.001492637333961
        0.002608137092490
        0.001280673462828
        0.000354693948474
        0.000000000000000
        0.000000000000000
       -0.000106057015652
       -0.000256527670113
       -0.000136990338878
        0.000786358507213
        0.001022468240377
        0.000555506335034
        0.000159171670255
        0.000000000000000
        0.000000000000000
       -0.000020673879276
       -0.000031029804626
        0.000048154748542
        0.000218093459832
        0.000256364074164
        0.000140088187435
        0.000000000000000
        0.000000000000000
        0.000000000000000
        0.000000000000000
        0.000000000000000
        0.000016145270306
        0.000034636537056
        0.000000000000000
        0.000000000000000
        0.000000000000000
        0.000000000000000
        0.000000000000000
        0.000000000000000
        0.000000000000000
       -0.000061318953440
       -0.000064804610225
       -0.000025545598919
        0.000000000000000
        0.000000000000000
        0.000000000000000
        0.000000000000000
       -0.000076034395423
       -0.000246086143786
       -0.000431471522253
       -0.000376054958315
       -0.000118906587954
        0.000015661170484
        0.000019501007646
        0.000000000000000
        0.000000000000000
       -0.000272077973744
       -0.000966631117249
       -0.002031071326769
       -0.001721996408000
       -0.000132080293087
        0.000248975980951
        0.000118098658341
        0.000000000000000
       -0.000083948963415
       -0.000558209164753
       -0.002393554512770
       -0.006404998602865
       -0.004568123747299
        0.001656069927941
        0.001277788235529
        0.000377054216051
        0.000063574571296
       -0.000109963273468
       -0.000639499688599
       -0.002934751403806
       -0.007802305560218
       -0.000000107304314
        0.007836203785302
        0.002960343079264
        0.000647890390895
        0.000111889591556
       -0.000063578797730
       -0.000378895790994
       -0.001300087376127
       -0.001736044099710
        0.004568079539139
        0.006520351088364
        0.002448070346435
        0.000572343116396
        0.000086537912832
        0.000000000000000
       -0.000121712943016
       -0.000265470134435
        0.000098083272256
        0.001721987997075
        0.002073471119389
        0.000993873320683
        0.000280856703709
        0.000000000000000
        0.000000000000000
       -0.000021166327052
       -0.000020680279844
        0.000111637383710
        0.000376053693225
        0.000440131050769
        0.000253432108794
        0.000078974451957
        0.000000000000000
        0.000000000000000
        0.000000000000000
        0.000000000000000
        0.000024328634742
        0.000064804486919
        0.000062696617592
        0.000000000000000
        0.000000000000000
        0.000000000000000
        0.000000000000000
        0.000000000000000
        0.000000000000000
       -0.000054944167770
       -0.000049550365533
        0.000000000000000
        0.000000000000000
        0.000000000000000
        0.000000000000000
        0.000000000000000
       -0.000070381837930
       -0.000221083514912
       -0.000374759026229
       -0.000309140023177
       -0.000096942251821
        0.000005286382162
        0.000000000000000
        0.000000000000000
        0.000000000000000
       -0.000240310461637
       -0.000846014458392
       -0.001727695231740
       -0.001236929488647
       -0.000143508403323
        0.000157149618425
        0.000076854209616
        0.000000000000000
       -0.000072724008826
       -0.000463964932849
       -0.001951164436448
       -0.005175377443823
       -0.002667346364104
        0.000846616654337
        0.000831534952317
        0.000273055245810
        0.000000000000000
       -0.000076716641937
       -0.000483139127584
       -0.001906178380162
       -0.004110345534288
        0.000581188542424
        0.004735968965941
        0.002067422995771
        0.000513457193651
        0.000080840172692
        0.000000000000000
       -0.000257773249700
       -0.000759435777985
       -0.000587277887196
        0.003273768796435
        0.005709663357104
        0.002107691159461
        0.000494539954420
        0.000076913362050
        0.000000000000000
       -0.000073099685468
       -0.000137960877372
        0.000207933292629
        0.001380915993740
        0.001874417816222
        0.000908503114840
        0.000256341616382
        0.000000000000000
        0.000000000000000
        0.000000000000000
       -0.000002475203272
        0.000108319988789
        0.000332964144075
        0.000400771941740
        0.000235863844437
        0.000074838494676
        0.000000000000000
        0.000000000000000
        0.000000000000000
        0.000000000000000
        0.000000000000000
        0.000052305844238
        0.000058079625784
        0.000000000000000
        0.000000000000000
        0.000000000000000
        0.000000000000000
        0.000000000000000
        0.000000000000000
        0.000000000000000
        0.000000000000000
        0.000000000000000
        0.000000000000000
        0.000000000000000
        0.000000000000000
        0.000000000000000
        0.000000000000000
       -0.000103040874741
       -0.000178116215566
       -0.000140647215195
       -0.000044529873356
        0.000000000000000
        0.000000000000000
        0.000000000000000
        0.000000000000000
       -0.000111122109791
       -0.000373703402175
       -0.000649981712639
       -0.000441458080238
       -0.000060567733859
        0.000055591092909
        0.000000000000000
        0.000000000000000
        0.000000000000000
       -0.000213792703821
       -0.000724982820214
       -0.001367015147330
       -0.000653275989284
        0.000261060754099
        0.000312132204428
        0.000112440099165
        0.000000000000000
        0.000000000000000
       -0.000207213327532
       -0.000643535124825
       -0.000960246215918
        0.000219089170772
        0.001240767763750
        0.000741531149968
        0.000229976097597
        0.000000000000000
        0.000000000000000
       -0.000100295594426
       -0.000256919122044
       -0.000103949265473
        0.000929018343569
        0.001593943053814
        0.000813975881229
        0.000235540772309
        0.000000000000000
        0.000000000000000
        0.000000000000000
       -0.000038394778941
        0.000112932568519
        0.000533438359842
        0.000735298444800
        0.000414079279769
        0.000121671271375
        0.000000000000000
        0.000000000000000
        0.000000000000000
        0.000000000000000
        0.000055072321314
        0.000160562135850
        0.000197753630285
        0.000113011809919
        0.000000000000000
        0.000000000000000
        0.000000000000000
        0.000000000000000
        0.000000000000000
        0.000000000000000
        0.000000000000000
        0.000000000000000
        0.000000000000000
        0.000000000000000
        0.000000000000000
        0.000000000000000
        0.000000000000000
        0.000000000000000
        0.000000000000000
        0.000000000000000
        0.000000000000000
        0.000000000000000
        0.000000000000000
        0.000000000000000
        0.000000000000000
        0.000000000000000
        0.000000000000000
       -0.000046879518251
       -0.000037927319648
        0.000000000000000
        0.000000000000000
        0.000000000000000
        0.000000000000000
        0.000000000000000
        0.000000000000000
       -0.000089856609070
       -0.000146763454093
       -0.000098354496134
       -0.000014912921100
        0.000000000000000
        0.000000000000000
        0.000000000000000
        0.000000000000000
       -0.000055850258033
       -0.000163223268462
       -0.000230256373713
       -0.000104095515454
        0.000056372539670
        0.000070476620951
        0.000000000000000
        0.000000000000000
        0.000000000000000
       -0.000052524074314
       -0.000138970733637
       -0.000151474112764
        0.000047845720532
        0.000222397390170
        0.000169773626831
        0.000060532684964
        0.000000000000000
        0.000000000000000
        0.000000000000000
       -0.000052512627601
       -0.000009870456346
        0.000174207102734
        0.000288402749363
        0.000190674285885
        0.000063439747611
        0.000000000000000
        0.000000000000000
        0.000000000000000
        0.000000000000000
        0.000032240564591
        0.000127816745248
        0.000173372869918
        0.000102714748721
        0.000000000000000
        0.000000000000000
        0.000000000000000
        0.000000000000000
        0.000000000000000
        0.000000000000000
        0.000045199676643
        0.000053910765723
        0.000000000000000
        0.000000000000000
        0.000000000000000
        0.000000000000000
        0.000000000000000
        0.000000000000000
        0.000000000000000
        0.000000000000000
        0.000000000000000
        0.000000000000000
        0.000000000000000
        0.000000000000000
        0.000000000000000
        0.000000000000000
        0.000000000000000
        0.000000000000000
        0.000000000000000
        0.000000000000000
        0.000000000000000
        0.000000000000000
        0.000000000000000
        0.000000000000000
        0.000000000000000
        0.000000000000000
        0.000000000000000
        0.000000000000000
        0.000000000000000
        0.000000000000000
        0.000000000000000
        0.000000000000000
        0.000000000000000
        0.000000000000000
        0.000000000000000
        0.000000000000000
        0.000000000000000
        0.000000000000000
        0.000000000000000
        0.000000000000000
        0.000000000000000
        0.000000000000000
        0.000000000000000
        0.000000000000000
       -0.000026026901208
       -0.000012754512405
        0.000000000000000
        0.000000000000000
        0.000000000000000
        0.000000000000000
        0.000000000000000
        0.000000000000000
        0.000000000000000
       -0.000017323131773
        0.000008245188977
        0.000028484322037
        0.000000000000000
        0.000000000000000
        0.000000000000000
        0.000000000000000
        0.000000000000000
        0.000000000000000
        0.000000000000000
        0.000023816338577
        0.000035592825245
        0.000000000000000
        0.000000000000000
        0.000000000000000
        0.000000000000000
        0.000000000000000
        0.000000000000000
        0.000000000000000
        0.000000000000000
        0.000000000000000
        0.000000000000000
        0.000000000000000
        0.000000000000000
        0.000000000000000
        0.000000000000000
        0.000000000000000
        0.000000000000000
        0.000000000000000
        0.000000000000000
        0.000000000000000
        0.000000000000000
        0.000000000000000
        0.000000000000000
        0.000000000000000
        0.000000000000000
        0.000000000000000
        0.000000000000000
        0.000000000000000
        0.000000000000000
        0.000000000000000
        0.000000000000000
END_DATAGRID_3D
END_BLOCK_DATAGRID_3D
