ATOMS
         C    7.558905    7.558905    7.558905
         H    8.755769    8.755769    8.755769
         H    6.362040    6.362040    8.755769
         H    8.755769    6.362040    6.362040
         H    6.362040    8.755769    6.362040
BEGIN_BLOCK_DATAGRID_3D
units: coords = b, function = 1/hbar/H*b^-2
BEGIN_DATAGRID_3D_function
      9      9      9
0.0 0.0 0.0
   15.117809    0.000000    0.000000
    0.000000   15.117809    0.000000
    0.000000    0.000000   15.117809
        0.000000000000000
        0.000000000000000
        0.000000000000000
        0.000000000000000
        0.000000000000000
        0.000000000000000
        0.000000000000000
        0.000000000000000
        0.000000000000000
        0.000000000000000
        0.000000000000000
        0.000000000000000
        0.000000000000000
        0.000000000000000
        0.000000000000000
        0.000000000000000
        0.000000000000000
        0.000000000000000
        0.000000000000000
        0.000000000000000
        0.000000000000000
        0.000000000000000
        0.000000000000000
        0.000000000000000
        0.000000000000000
        0.000000000000000
        0.000000000000000
        0.000000000000000
        0.000000000000000
        0.000000000000000
        0.000000000000000
       -0.000000000830837
       -0.000000000009636
        0.000000000000000
        0.000000000000000
        0.000000000000000
        0.000000000000000
        0.000000000000000
        0.000000000000000
       -0.000000000009979
       -0.000000002462308
       -0.000000000009636
        0.000000000000000
        0.000000000000000
        0.000000000000000
        0.000000000000000
        0.000000000000000
        0.000000000000000
       -0.000000000009979
       -0.000000000829560
        0.000000000000000
        0.000000000000000
        0.000000000000000
        0.000000000000000
        0.000000000000000
        0.000000000000000
        0.000000000000000
        0.000000000000000
        0.000000000000000
        0.000000000000000
        0.000000000000000
        0.000000000000000
        0.000000000000000
        0.000000000000000
        0.000000000000000
        0.000000000000000
        0.000000000000000
        0.000000000000000
        0.000000000000000
        0.000000000000000
        0.000000000000000
        0.000000000000000
        0.000000000000000
        0.000000000000000
        0.000000000000000
        0.000000000000000
        0.000000000000000
        0.000000000000000
        0.000000000000000
        0.000000000000000
        0.000000000000000
        0.000000000000000
        0.000000000000000
        0.000000000000000
        0.000000000000000
        0.000000000000000
        0.000000000000000
        0.000000000000000
        0.000000000000000
        0.000000000000000
        0.000000000000000
        0.000000000000000
        0.000000000000000
        0.000000000000000
       -0.000000001343144
        0.000000001232965
        0.000000000000000
        0.000000000000000
        0.000000000000000
        0.000000000000000
        0.000000000000000
        0.000000000000000
       -0.000000002725365
       -0.000000002274988
        0.000000001560982
        0.000000001671689
        0.000000000000000
        0.000000000000000
        0.000000000000000
        0.000000000000000
       -0.000000001838581
       -0.000000004690026
        0.000000001091036
       -0.000000000822079
        0.000000002299566
       -0.000000000004342
        0.000000000000000
        0.000000000000000
       -0.000000000004253
       -0.000000003303841
        0.000000001332975
       -0.000000000742408
        0.000000001342780
       -0.000000003300330
       -0.000000000004342
        0.000000000000000
        0.000000000000000
       -0.000000000004253
        0.000000002292395
       -0.000000000840191
        0.000000001065323
       -0.000000004691137
       -0.000000001841946
        0.000000000000000
        0.000000000000000
        0.000000000000000
        0.000000000000000
        0.000000001672323
        0.000000001556326
       -0.000000002276619
       -0.000000002726882
        0.000000000000000
        0.000000000000000
        0.000000000000000
        0.000000000000000
        0.000000000000000
        0.000000000000000
        0.000000001233878
       -0.000000001343558
        0.000000000000000
        0.000000000000000
        0.000000000000000
        0.000000000000000
        0.000000000000000
        0.000000000000000
        0.000000000000000
        0.000000000000000
        0.000000000000000
        0.000000000000000
        0.000000000000000
        0.000000000000000
        0.000000000000000
        0.000000000000000
        0.000000000000000
        0.000000000000000
        0.000000000000000
        0.000000000000000
        0.000000000000000
        0.000000000000000
        0.000000000000000
        0.000000000000000
        0.000000000000000
        0.000000000000000
        0.000000000000000
       -0.000000003918155
       -0.000000000941032
        0.000000000304338
        0.000000002835033
        0.000000000000000
        0.000000000000000
        0.000000000000000
        0.000000000000000
       -0.000000005577383
        0.000000002073685
        0.000000018497346
       -0.000000017980007
       -0.000000009295944
        0.000000001179539
        0.000000000000000
        0.000000000000000
       -0.000000001077495
       -0.000000001416724
        0.000000055916200
       -0.000000032282910
       -0.000000112942587
       -0.000000010012945
        0.000000000971887
        0.000000000000000
        0.000000000000000
       -0.000000002520623
        0.000000020743765
       -0.000000041429690
       -0.000000114231464
       -0.000000042133993
        0.000000020955598
       -0.000000002529298
        0.000000000000000
        0.000000000000000
        0.000000000954711
       -0.000000009969185
       -0.000000112385856
       -0.000000032895948
        0.000000056165648
       -0.000000001335347
       -0.000000001087843
        0.000000000000000
        0.000000000000000
        0.000000001173050
       -0.000000009209782
       -0.000000018200945
        0.000000018421082
        0.000000002172575
       -0.000000005595993
        0.000000000000000
        0.000000000000000
        0.000000000000000
        0.000000000000000
        0.000000002831082
        0.000000000296693
       -0.000000000940434
       -0.000000003926350
        0.000000000000000
        0.000000000000000
        0.000000000000000
        0.000000000000000
        0.000000000000000
        0.000000000000000
        0.000000000000000
        0.000000000000000
        0.000000000000000
        0.000000000000000
        0.000000000000000
        0.000000000000000
        0.000000000000000
        0.000000000000000
        0.000000000000000
        0.000000000000000
       -0.000000002205393
        0.000000001429493
        0.000000000000000
        0.000000000000000
        0.000000000000000
        0.000000000000000
        0.000000000000000
       -0.000000003012617
       -0.000000008640744
       -0.000000019716925
        0.000000015211553
        0.000000008258119
       -0.000000000221880
        0.000000000000000
        0.000000000000000
       -0.000000000436920
       -0.000000007530769
        0.000000224178270
        0.000000370109645
       -0.000000327885822
       -0.000000214292834
        0.000000010327303
        0.000000000000000
        0.000000000000000
       -0.000000013287736
        0.000000207889869
        0.000000626849339
       -0.000001089884294
       -0.000002005721463
       -0.000000181545614
        0.000000009792979
       -0.000000000078201
       -0.000000000078028
       -0.000000018038115
        0.000000331601913
       -0.000001029522315
       -0.000002634528820
       -0.000001039678700
        0.000000333525028
       -0.000000018066420
       -0.000000000078201
       -0.000000000078028
        0.000000009698011
       -0.000000180161424
       -0.000001995353576
       -0.000001098043230
        0.000000628999192
        0.000000209420710
       -0.000000013358933
        0.000000000000000
        0.000000000000000
        0.000000010265826
       -0.000000212951988
       -0.000000329145977
        0.000000369821359
        0.000000225436481
       -0.000000007463862
       -0.000000000451475
        0.000000000000000
        0.000000000000000
       -0.000000000223574
        0.000000008211671
        0.000000015218652
       -0.000000019715890
       -0.000000008663537
       -0.000000003025743
        0.000000000000000
        0.000000000000000
        0.000000000000000
        0.000000000000000
        0.000000000000000
        0.000000001432667
       -0.000000002198888
        0.000000000000000
        0.000000000000000
        0.000000000000000
        0.000000000000000
        0.000000000000000
        0.000000000000000
        0.000000000000000
       -0.000000001534924
       -0.000000000001247
        0.000000001531787
        0.000000000000000
        0.000000000000000
        0.000000000000000
        0.000000000000000
        0.000000000239053
       -0.000000005649238
       -0.000000035087817
       -0.000000000046588
        0.000000035161182
        0.000000005685330
       -0.000000000236354
        0.000000000000000
        0.000000000000000
       -0.000000007816298
        0.000000123446409
        0.000000878464699
        0.000000000771503
       -0.000000881170209
       -0.000000124503784
        0.000000007885460
        0.000000000000000
       -0.000000000452165
       -0.000000028075010
        0.000000724709759
        0.000002189048305
        0.000000019062609
       -0.000002205268599
       -0.000000729218171
        0.000000028188661
        0.000000000461620
        0.000000000000000
       -0.000000000000000
       -0.000000000000000
        0.000000000000000
       -0.000000000000000
       -0.000000000000000
        0.000000000000000
        0.000000000000000
        0.000000000000000
        0.000000000452165
        0.000000028075010
       -0.000000724709759
       -0.000002189048305
       -0.000000019062609
        0.000002205268599
        0.000000729218171
       -0.000000028188661
       -0.000000000461620
        0.000000000000000
        0.000000007816298
       -0.000000123446409
       -0.000000878464699
       -0.000000000771503
        0.000000881170209
        0.000000124503784
       -0.000000007885460
        0.000000000000000
        0.000000000000000
       -0.000000000239053
        0.000000005649238
        0.000000035087817
        0.000000000046588
       -0.000000035161182
       -0.000000005685330
        0.000000000236354
        0.000000000000000
        0.000000000000000
        0.000000000000000
        0.000000000000000
        0.000000001534924
        0.000000000001247
       -0.000000001531787
        0.000000000000000
        0.000000000000000
        0.000000000000000
        0.000000000000000
        0.000000000000000
        0.000000000000000
       -0.000000001432667
        0.000000002198888
        0.000000000000000
        0.000000000000000
        0.000000000000000
        0.000000000000000
        0.000000000000000
        0.000000000223574
       -0.000000008211671
       -0.000000015218652
        0.000000019715890
        0.000000008663538
        0.000000003025743
        0.000000000000000
        0.000000000000000
        0.000000000000000
       -0.000000010265826
        0.000000212951988
        0.000000329145977
       -0.000000369821359
       -0.000000225436481
        0.000000007463862
        0.000000000451475
        0.000000000000000
        0.000000000078028
       -0.000000009698011
        0.000000180161424
        0.000001995353576
        0.000001098043230
       -0.000000628999192
       -0.000000209420710
        0.000000013358933
        0.000000000000000
        0.000000000078028
        0.000000018038115
       -0.000000331601913
        0.000001029522315
        0.000002634528820
        0.000001039678700
       -0.000000333525028
        0.000000018066420
        0.000000000078201
        0.000000000000000
        0.000000013287736
       -0.000000207889869
       -0.000000626849339
        0.000001089884294
        0.000002005721463
        0.000000181545614
       -0.000000009792979
        0.000000000078201
        0.000000000000000
        0.000000000436920
        0.000000007530769
       -0.000000224178270
       -0.000000370109645
        0.000000327885822
        0.000000214292834
       -0.000000010327303
        0.000000000000000
        0.000000000000000
        0.000000000000000
        0.000000003012617
        0.000000008640744
        0.000000019716925
       -0.000000015211553
       -0.000000008258119
        0.000000000221880
        0.000000000000000
        0.000000000000000
        0.000000000000000
        0.000000000000000
        0.000000000000000
        0.000000002205393
       -0.000000001429493
        0.000000000000000
        0.000000000000000
        0.000000000000000
        0.000000000000000
        0.000000000000000
        0.000000000000000
        0.000000000000000
        0.000000000000000
        0.000000000000000
        0.000000000000000
        0.000000000000000
        0.000000000000000
        0.000000000000000
        0.000000000000000
       -0.000000002831082
       -0.000000000296693
        0.000000000940434
        0.000000003926350
        0.000000000000000
        0.000000000000000
        0.000000000000000
        0.000000000000000
       -0.000000001173050
        0.000000009209782
        0.000000018200945
       -0.000000018421082
       -0.000000002172575
        0.000000005595993
        0.000000000000000
        0.000000000000000
        0.000000000000000
       -0.000000000954711
        0.000000009969185
        0.000000112385856
        0.000000032895948
       -0.000000056165648
        0.000000001335347
        0.000000001087843
        0.000000000000000
        0.000000000000000
        0.000000002520623
       -0.000000020743765
        0.000000041429690
        0.000000114231464
        0.000000042133993
       -0.000000020955598
        0.000000002529298
        0.000000000000000
        0.000000000000000
        0.000000001077495
        0.000000001416724
       -0.000000055916200
        0.000000032282910
        0.000000112942587
        0.000000010012945
       -0.000000000971887
        0.000000000000000
        0.000000000000000
        0.000000000000000
        0.000000005577383
       -0.000000002073685
       -0.000000018497346
        0.000000017980007
        0.000000009295944
       -0.000000001179539
        0.000000000000000
        0.000000000000000
        0.000000000000000
        0.000000000000000
        0.000000003918155
        0.000000000941032
       -0.000000000304338
       -0.000000002835033
        0.000000000000000
        0.000000000000000
        0.000000000000000
        0.000000000000000
        0.000000000000000
        0.000000000000000
        0.000000000000000
        0.000000000000000
        0.000000000000000
        0.000000000000000
        0.000000000000000
        0.000000000000000
        0.000000000000000
        0.000000000000000
        0.000000000000000
        0.000000000000000
        0.000000000000000
        0.000000000000000
        0.000000000000000
        0.000000000000000
        0.000000000000000
        0.000000000000000
        0.000000000000000
       -0.000000001233878
        0.000000001343558
        0.000000000000000
        0.000000000000000
        0.000000000000000
        0.000000000000000
        0.000000000000000
        0.000000000000000
       -0.000000001672323
       -0.000000001556326
        0.000000002276619
        0.000000002726882
        0.000000000000000
        0.000000000000000
        0.000000000000000
        0.000000000000000
        0.000000000004253
       -0.000000002292395
        0.000000000840191
       -0.000000001065323
        0.000000004691137
        0.000000001841946
        0.000000000000000
        0.000000000000000
        0.000000000000000
        0.000000000004253
        0.000000003303841
       -0.000000001332975
        0.000000000742408
       -0.000000001342780
        0.000000003300330
        0.000000000004342
        0.000000000000000
        0.000000000000000
        0.000000000000000
        0.000000001838581
        0.000000004690026
       -0.000000001091036
        0.000000000822079
       -0.000000002299566
        0.000000000004342
        0.000000000000000
        0.000000000000000
        0.000000000000000
        0.000000000000000
        0.000000002725365
        0.000000002274988
       -0.000000001560982
       -0.000000001671689
        0.000000000000000
        0.000000000000000
        0.000000000000000
        0.000000000000000
        0.000000000000000
        0.000000000000000
        0.000000001343144
       -0.000000001232965
        0.000000000000000
        0.000000000000000
        0.000000000000000
        0.000000000000000
        0.000000000000000
        0.000000000000000
        0.000000000000000
        0.000000000000000
        0.000000000000000
        0.000000000000000
        0.000000000000000
        0.000000000000000
        0.000000000000000
        0.000000000000000
        0.000000000000000
        0.000000000000000
        0.000000000000000
        0.000000000000000
        0.000000000000000
        0.000000000000000
        0.000000000000000
        0.000000000000000
        0.000000000000000
        0.000000000000000
        0.000000000000000
        0.000000000000000
        0.000000000000000
        0.000000000000000
        0.000000000000000
        0.000000000000000
        0.000000000000000
        0.000000000000000
        0.000000000000000
        0.000000000000000
        0.000000000000000
        0.000000000000000
        0.000000000000000
        0.000000000000000
        0.000000000000000
        0.000000000000000
        0.000000000000000
        0.000000000000000
        0.000000000009979
        0.000000000829560
        0.000000000000000
        0.000000000000000
        0.000000000000000
        0.000000000000000
        0.000000000000000
        0.000000000000000
        0.000000000000000
        0.000000000009979
        0.000000002462308
        0.000000000009636
        0.000000000000000
        0.000000000000000
        0.000000000000000
        0.000000000000000
        0.000000000000000
        0.000000000000000
        0.000000000000000
        0.000000000830837
        0.000000000009636
        0.000000000000000
        0.000000000000000
        0.000000000000000
        0.000000000000000
        0.000000000000000
        0.000000000000000
        0.000000000000000
        0.000000000000000
        0.000000000000000
        0.000000000000000
        0.000000000000000
        0.000000000000000
        0.000000000000000
        0.000000000000000
        0.000000000000000
        0.000000000000000
        0.000000000000000
        0.000000000000000
        0.000000000000000
        0.000000000000000
        0.000000000000000
        0.000000000000000
        0.000000000000000
        0.000000000000000
        0.000000000000000
        0.000000000000000
        0.000000000000000
        0.000000000000000
        0.000000000000000
        0.000000000000000
END_DATAGRID_3D
END_BLOCK_DATAGRID_3D
