ATOMS
         C    7.558905    7.558905    7.558905
         H    8.755769    8.755769    8.755769
         H    6.362040    6.362040    8.755769
         H    8.755769    6.362040    6.362040
         H    6.362040    8.755769    6.362040
BEGIN_BLOCK_DATAGRID_3D
units: coords = b, function = sqrt(b^-3)
BEGIN_DATAGRID_3D_function
      9      9      9
0.0 0.0 0.0
   15.117809    0.000000    0.000000
    0.000000   15.117809    0.000000
    0.000000    0.000000   15.117809
        0.000000000000000
        0.000000000000000
        0.000000000000000
        0.000000000000000
        0.000000000000000
        0.000000000000000
        0.000000000000000
        0.000000000000000
        0.000000000000000
        0.000000000000000
        0.000000000000000
        0.000000000000000
        0.000000000000000
        0.000000000000000
        0.000000000000000
        0.000000000000000
        0.000000000000000
        0.000000000000000
        0.000000000000000
        0.000000000000000
        0.000000000000000
        0.000000000000000
        0.000000000000000
        0.000000000000000
        0.000000000000000
        0.000000000000000
        0.000000000000000
        0.000000000000000
        0.000000000000000
        0.000000000000000
        0.000000000000000
       -0.000130192636175
        0.000048988004971
        0.000000000000000
        0.000000000000000
        0.000000000000000
        0.000000000000000
        0.000000000000000
        0.000000000000000
       -0.000288724138363
       -0.000120851660542
        0.000126005521543
        0.000000000000000
        0.000000000000000
        0.000000000000000
        0.000000000000000
        0.000000000000000
        0.000000000000000
       -0.000187539949593
       -0.000031743650494
        0.000000000000000
        0.000000000000000
        0.000000000000000
        0.000000000000000
        0.000000000000000
        0.000000000000000
        0.000000000000000
        0.000000000000000
        0.000000000000000
        0.000000000000000
        0.000000000000000
        0.000000000000000
        0.000000000000000
        0.000000000000000
        0.000000000000000
        0.000000000000000
        0.000000000000000
        0.000000000000000
        0.000000000000000
        0.000000000000000
        0.000000000000000
        0.000000000000000
        0.000000000000000
        0.000000000000000
        0.000000000000000
        0.000000000000000
        0.000000000000000
        0.000000000000000
        0.000000000000000
        0.000000000000000
        0.000000000000000
        0.000000000000000
        0.000000000000000
        0.000000000000000
        0.000000000000000
        0.000000000000000
        0.000000000000000
        0.000000000000000
        0.000000000000000
        0.000000000000000
        0.000000000000000
        0.000000000000000
        0.000000000000000
        0.000000000000000
       -0.000281037990008
       -0.000095918840270
        0.000000000000000
        0.000000000000000
        0.000000000000000
        0.000000000000000
        0.000000000000000
        0.000000000000000
       -0.001020478302591
       -0.000851113860681
       -0.000013190982479
        0.000280022845097
        0.000000000000000
        0.000000000000000
        0.000000000000000
        0.000000000000000
       -0.001350148448978
       -0.002186275530543
       -0.001217625811819
        0.000574833101533
        0.000921497533031
        0.000415714947086
        0.000000000000000
        0.000000000000000
       -0.000661194422627
       -0.001884433762943
       -0.002473374142287
       -0.000702154931757
        0.001436135784195
        0.001438582683957
        0.000547575403187
        0.000000000000000
        0.000000000000000
       -0.000521088624127
       -0.001310981631084
       -0.001416075802576
        0.000188519483784
        0.001498435065953
        0.001085441696584
        0.000000000000000
        0.000000000000000
        0.000000000000000
        0.000000000000000
       -0.000459156369584
       -0.000368014101358
        0.000418736263541
        0.000762099213428
        0.000000000000000
        0.000000000000000
        0.000000000000000
        0.000000000000000
        0.000000000000000
        0.000000000000000
       -0.000003811427241
        0.000174759533539
        0.000000000000000
        0.000000000000000
        0.000000000000000
        0.000000000000000
        0.000000000000000
        0.000000000000000
        0.000000000000000
        0.000000000000000
        0.000000000000000
        0.000000000000000
        0.000000000000000
        0.000000000000000
        0.000000000000000
        0.000000000000000
        0.000000000000000
        0.000000000000000
        0.000000000000000
        0.000000000000000
        0.000000000000000
        0.000000000000000
        0.000000000000000
        0.000000000000000
        0.000000000000000
        0.000000000000000
        0.000000000000000
       -0.001355442837776
       -0.001329731861878
       -0.000368071380171
        0.000130735397430
        0.000000000000000
        0.000000000000000
        0.000000000000000
        0.000000000000000
       -0.002748277394561
       -0.005187843384551
       -0.004118411784042
        0.000061325104516
        0.001234325371851
        0.000593339894454
        0.000000000000000
        0.000000000000000
       -0.001963301633284
       -0.006627100753573
       -0.011324144428369
       -0.007005160638135
        0.004048788244603
        0.004320337033486
        0.001664672434523
        0.000000000000000
        0.000000000000000
       -0.002761532891438
       -0.008674874218015
       -0.014287673758210
       -0.003223165882428
        0.010185717974787
        0.007265156554123
        0.002438440699086
        0.000000000000000
        0.000000000000000
       -0.001962389335161
       -0.005565642715439
       -0.007314211387612
        0.002950147125401
        0.008987833484686
        0.005803853068607
        0.001783781053379
        0.000000000000000
        0.000000000000000
       -0.000733620762519
       -0.001789095013314
       -0.001274913100032
        0.002765573635988
        0.004393900601510
        0.002482375675993
        0.000000000000000
        0.000000000000000
        0.000000000000000
        0.000000000000000
       -0.000264894628337
        0.000092151190513
        0.001036912361568
        0.001193374606228
        0.000000000000000
        0.000000000000000
        0.000000000000000
        0.000000000000000
        0.000000000000000
        0.000000000000000
        0.000000000000000
        0.000000000000000
        0.000000000000000
        0.000000000000000
        0.000000000000000
        0.000000000000000
        0.000000000000000
        0.000000000000000
        0.000000000000000
        0.000000000000000
       -0.000546334509832
       -0.000278475386844
        0.000000000000000
        0.000000000000000
        0.000000000000000
        0.000000000000000
        0.000000000000000
       -0.002087424453803
       -0.003920951742478
       -0.003538126785123
       -0.001060928611429
        0.000266443674462
        0.000251184038208
        0.000000000000000
        0.000000000000000
       -0.002365708071727
       -0.008379929769689
       -0.015900561397246
       -0.013610634716275
       -0.000035316907845
        0.002949751016813
        0.001364436658759
        0.000000000000000
        0.000000000000000
       -0.005355490959265
       -0.019663258970767
       -0.041874128165508
       -0.030726755028303
        0.017070009671808
        0.012638834634530
        0.004004886185467
        0.000733836504261
       -0.001052517445992
       -0.006719927180648
       -0.026326551146561
       -0.059193085480706
       -0.008567595660908
        0.050036958754562
        0.024052979553961
        0.006290144575368
        0.000995196066550
       -0.000788908984758
       -0.004413945584405
       -0.014768044175140
       -0.024695796308096
        0.021768404318139
        0.037952245232645
        0.018566751002861
        0.005118689918797
        0.000000000000000
        0.000000000000000
       -0.001569985129037
       -0.003782491238826
       -0.002022533086367
        0.011480696815147
        0.014878072394893
        0.008050716558262
        0.002297465704022
        0.000000000000000
        0.000000000000000
       -0.000306057139937
       -0.000458315567225
        0.000704613795856
        0.003185509093048
        0.003730065165033
        0.002030561530722
        0.000000000000000
        0.000000000000000
        0.000000000000000
        0.000000000000000
        0.000000000000000
        0.000236685864569
        0.000506437140111
        0.000000000000000
        0.000000000000000
        0.000000000000000
        0.000000000000000
        0.000000000000000
        0.000000000000000
        0.000000000000000
       -0.000899800578801
       -0.000947662682509
       -0.000372274778986
        0.000000000000000
        0.000000000000000
        0.000000000000000
        0.000000000000000
       -0.001125205352900
       -0.003627872914834
       -0.006335348423848
       -0.005499925499274
       -0.001733629316623
        0.000225798663168
        0.000281329200039
        0.000000000000000
        0.000000000000000
       -0.004026838588128
       -0.014244647071399
       -0.029816311418856
       -0.025192941186915
       -0.001942373968562
        0.003605879098528
        0.001704018971068
        0.000000000000000
       -0.001247647805688
       -0.008263028143124
       -0.035249386232932
       -0.094018627808311
       -0.066849721692857
        0.024035300532428
        0.018530016520602
        0.005440444483653
        0.000913137826547
       -0.001635212789544
       -0.009466165987512
       -0.043206749561190
       -0.114569440225703
        0.000002013982052
        0.114008110007354
        0.042954377859880
        0.009348485133265
        0.001606775192714
       -0.000945269948600
       -0.005608747415419
       -0.019150973697462
       -0.025551215873123
        0.066687219021617
        0.094896064048542
        0.035510854774631
        0.008258256476759
        0.001243446188662
        0.000000000000000
       -0.001801707267544
       -0.003915337771249
        0.001419247524960
        0.025145214037000
        0.030174425776645
        0.014407204570210
        0.004053147844740
        0.000000000000000
        0.000000000000000
       -0.000313370562671
       -0.000306036812686
        0.001635532194842
        0.005493107181458
        0.006403724746652
        0.003672251959828
        0.001139841027282
        0.000000000000000
        0.000000000000000
        0.000000000000000
        0.000000000000000
        0.000356626785602
        0.000946730459886
        0.000912776128587
        0.000000000000000
        0.000000000000000
        0.000000000000000
        0.000000000000000
        0.000000000000000
        0.000000000000000
       -0.000806310753908
       -0.000724958603729
        0.000000000000000
        0.000000000000000
        0.000000000000000
        0.000000000000000
        0.000000000000000
       -0.001041596364988
       -0.003259421132012
       -0.005502974749970
       -0.004521649311092
       -0.001413298388872
        0.000075996042874
        0.000000000000000
        0.000000000000000
        0.000000000000000
       -0.003556777043134
       -0.012466715110731
       -0.025367183011426
       -0.018098788431340
       -0.002101431664361
        0.002275136568719
        0.001109047603016
        0.000000000000000
       -0.001080927818930
       -0.006868112071532
       -0.028733792677009
       -0.075987558500087
       -0.039059645022990
        0.012285078752974
        0.012053013411116
        0.003940308451335
        0.000000000000000
       -0.001140400308296
       -0.007151848377895
       -0.028073808783834
       -0.060376758200728
        0.008405092989667
        0.068894405826409
        0.029987891741272
        0.007408556385044
        0.001161387948659
        0.000000000000000
       -0.003815419576389
       -0.011192741252578
       -0.008661592836512
        0.047775137666455
        0.083082029952116
        0.030574682750355
        0.007135519822316
        0.001105063415778
        0.000000000000000
       -0.001081999077797
       -0.002036052706655
        0.003038488878921
        0.020163918736268
        0.027273723842164
        0.013170422023675
        0.003699263621561
        0.000000000000000
        0.000000000000000
        0.000000000000000
       -0.000037157858782
        0.001587481444874
        0.004863522710083
        0.005830830217175
        0.003417577701226
        0.001080116831845
        0.000000000000000
        0.000000000000000
        0.000000000000000
        0.000000000000000
        0.000000000000000
        0.000763784997590
        0.000845510170403
        0.000000000000000
        0.000000000000000
        0.000000000000000
        0.000000000000000
        0.000000000000000
        0.000000000000000
        0.000000000000000
        0.000000000000000
        0.000000000000000
        0.000000000000000
        0.000000000000000
        0.000000000000000
        0.000000000000000
        0.000000000000000
       -0.001518685443766
       -0.002615555826680
       -0.002057309389072
       -0.000649132475748
        0.000000000000000
        0.000000000000000
        0.000000000000000
        0.000000000000000
       -0.001644481101079
       -0.005508554963571
       -0.009545011642409
       -0.006459399962467
       -0.000885879051796
        0.000804953233240
        0.000000000000000
        0.000000000000000
        0.000000000000000
       -0.003164372837010
       -0.010683563634118
       -0.020075504710181
       -0.009568238741594
        0.003788807245846
        0.004522000058374
        0.001622732253660
        0.000000000000000
        0.000000000000000
       -0.003067012964234
       -0.009485110624633
       -0.014109390135685
        0.003175438732513
        0.018046333833295
        0.010747927114615
        0.003318726116722
        0.000000000000000
        0.000000000000000
       -0.001484405516240
       -0.003788881722771
       -0.001537928089956
        0.013558444658128
        0.023189618689716
        0.011799836007002
        0.003399027845797
        0.000000000000000
        0.000000000000000
        0.000000000000000
       -0.000566812279718
        0.001652934160347
        0.007789802955715
        0.010697494555564
        0.006000960506965
        0.001756085625375
        0.000000000000000
        0.000000000000000
        0.000000000000000
        0.000000000000000
        0.000807226116400
        0.002345226079231
        0.002877062232936
        0.001637996884623
        0.000000000000000
        0.000000000000000
        0.000000000000000
        0.000000000000000
        0.000000000000000
        0.000000000000000
        0.000000000000000
        0.000000000000000
        0.000000000000000
        0.000000000000000
        0.000000000000000
        0.000000000000000
        0.000000000000000
        0.000000000000000
        0.000000000000000
        0.000000000000000
        0.000000000000000
        0.000000000000000
        0.000000000000000
        0.000000000000000
        0.000000000000000
        0.000000000000000
        0.000000000000000
       -0.000688071483876
       -0.000554962932726
        0.000000000000000
        0.000000000000000
        0.000000000000000
        0.000000000000000
        0.000000000000000
        0.000000000000000
       -0.001324423702519
       -0.002155390534808
       -0.001439133291045
       -0.000217857082948
        0.000000000000000
        0.000000000000000
        0.000000000000000
        0.000000000000000
       -0.000826564880797
       -0.002406755068152
       -0.003382285151539
       -0.001524659701829
        0.000818331710207
        0.001021115877012
        0.000000000000000
        0.000000000000000
        0.000000000000000
       -0.000777381492944
       -0.002049475964577
       -0.002226442086719
        0.000695336613940
        0.003233959645834
        0.002459467939039
        0.000873594824133
        0.000000000000000
        0.000000000000000
        0.000000000000000
       -0.000774433863607
       -0.000147194767061
        0.002543021736779
        0.004195068504214
        0.002762523842657
        0.000915585922967
        0.000000000000000
        0.000000000000000
        0.000000000000000
        0.000000000000000
        0.000472261581214
        0.001866608078034
        0.002522181835244
        0.001488709436956
        0.000000000000000
        0.000000000000000
        0.000000000000000
        0.000000000000000
        0.000000000000000
        0.000000000000000
        0.000659981266101
        0.000784721702069
        0.000000000000000
        0.000000000000000
        0.000000000000000
        0.000000000000000
        0.000000000000000
        0.000000000000000
        0.000000000000000
        0.000000000000000
        0.000000000000000
        0.000000000000000
        0.000000000000000
        0.000000000000000
        0.000000000000000
        0.000000000000000
        0.000000000000000
        0.000000000000000
        0.000000000000000
        0.000000000000000
        0.000000000000000
        0.000000000000000
        0.000000000000000
        0.000000000000000
        0.000000000000000
        0.000000000000000
        0.000000000000000
        0.000000000000000
        0.000000000000000
        0.000000000000000
        0.000000000000000
        0.000000000000000
        0.000000000000000
        0.000000000000000
        0.000000000000000
        0.000000000000000
        0.000000000000000
        0.000000000000000
        0.000000000000000
        0.000000000000000
        0.000000000000000
        0.000000000000000
        0.000000000000000
        0.000000000000000
       -0.000382084939747
       -0.000186777813124
        0.000000000000000
        0.000000000000000
        0.000000000000000
        0.000000000000000
        0.000000000000000
        0.000000000000000
        0.000000000000000
       -0.000254449654835
        0.000119919437919
        0.000414495828058
        0.000000000000000
        0.000000000000000
        0.000000000000000
        0.000000000000000
        0.000000000000000
        0.000000000000000
        0.000000000000000
        0.000347643123933
        0.000518046778587
        0.000000000000000
        0.000000000000000
        0.000000000000000
        0.000000000000000
        0.000000000000000
        0.000000000000000
        0.000000000000000
        0.000000000000000
        0.000000000000000
        0.000000000000000
        0.000000000000000
        0.000000000000000
        0.000000000000000
        0.000000000000000
        0.000000000000000
        0.000000000000000
        0.000000000000000
        0.000000000000000
        0.000000000000000
        0.000000000000000
        0.000000000000000
        0.000000000000000
        0.000000000000000
        0.000000000000000
        0.000000000000000
        0.000000000000000
        0.000000000000000
        0.000000000000000
        0.000000000000000
        0.000000000000000
END_DATAGRID_3D
END_BLOCK_DATAGRID_3D
