ATOMS
         C    7.558905    7.558905    7.558905
         H    8.755769    8.755769    8.755769
         H    6.362040    6.362040    8.755769
         H    8.755769    6.362040    6.362040
         H    6.362040    8.755769    6.362040
BEGIN_BLOCK_DATAGRID_3D
units: coords = b, function = sqrt(b^-3)
BEGIN_DATAGRID_3D_function
      9      9      9
0.0 0.0 0.0
   15.117809    0.000000    0.000000
    0.000000   15.117809    0.000000
    0.000000    0.000000   15.117809
        0.000000000000000
        0.000000000000000
        0.000000000000000
        0.000000000000000
        0.000000000000000
        0.000000000000000
        0.000000000000000
        0.000000000000000
        0.000000000000000
        0.000000000000000
        0.000000000000000
        0.000000000000000
        0.000000000000000
        0.000000000000000
        0.000000000000000
        0.000000000000000
        0.000000000000000
        0.000000000000000
        0.000000000000000
        0.000000000000000
        0.000000000000000
        0.000000000000000
        0.000000000000000
        0.000000000000000
        0.000000000000000
        0.000000000000000
        0.000000000000000
        0.000000000000000
        0.000000000000000
        0.000000000000000
        0.000000000000000
       -0.000583216042774
       -0.000569436764514
        0.000000000000000
        0.000000000000000
        0.000000000000000
        0.000000000000000
        0.000000000000000
        0.000000000000000
       -0.000345329882616
       -0.000679756509107
       -0.000568672610786
        0.000000000000000
        0.000000000000000
        0.000000000000000
        0.000000000000000
        0.000000000000000
        0.000000000000000
       -0.000211540935649
       -0.000328785703910
        0.000000000000000
        0.000000000000000
        0.000000000000000
        0.000000000000000
        0.000000000000000
        0.000000000000000
        0.000000000000000
        0.000000000000000
        0.000000000000000
        0.000000000000000
        0.000000000000000
        0.000000000000000
        0.000000000000000
        0.000000000000000
        0.000000000000000
        0.000000000000000
        0.000000000000000
        0.000000000000000
        0.000000000000000
        0.000000000000000
        0.000000000000000
        0.000000000000000
        0.000000000000000
        0.000000000000000
        0.000000000000000
        0.000000000000000
        0.000000000000000
        0.000000000000000
        0.000000000000000
        0.000000000000000
        0.000000000000000
        0.000000000000000
        0.000000000000000
        0.000000000000000
        0.000000000000000
        0.000000000000000
        0.000000000000000
        0.000000000000000
        0.000000000000000
        0.000000000000000
        0.000000000000000
        0.000000000000000
        0.000000000000000
        0.000000000000000
       -0.000610937490731
       -0.000619394092624
        0.000000000000000
        0.000000000000000
        0.000000000000000
        0.000000000000000
        0.000000000000000
        0.000000000000000
       -0.001031109551769
       -0.002062984384630
       -0.002083413126139
       -0.001063995214996
        0.000000000000000
        0.000000000000000
        0.000000000000000
        0.000000000000000
       -0.000546624920189
       -0.002031634741026
       -0.003918930776858
       -0.003863606746802
       -0.002030771167646
       -0.000591254405249
        0.000000000000000
        0.000000000000000
       -0.000051432793238
       -0.000531556173981
       -0.002043952329960
       -0.003944004468024
       -0.003752372793627
       -0.001924675242531
       -0.000563157086766
        0.000000000000000
        0.000000000000000
        0.000011772095380
       -0.000143373836537
       -0.000866779861069
       -0.001860249980015
       -0.001786730314634
       -0.000896611207336
        0.000000000000000
        0.000000000000000
        0.000000000000000
        0.000000000000000
        0.000050854106011
       -0.000073059133598
       -0.000365432697177
       -0.000399052250667
        0.000000000000000
        0.000000000000000
        0.000000000000000
        0.000000000000000
        0.000000000000000
        0.000000000000000
        0.000051376529444
        0.000011256288187
        0.000000000000000
        0.000000000000000
        0.000000000000000
        0.000000000000000
        0.000000000000000
        0.000000000000000
        0.000000000000000
        0.000000000000000
        0.000000000000000
        0.000000000000000
        0.000000000000000
        0.000000000000000
        0.000000000000000
        0.000000000000000
        0.000000000000000
        0.000000000000000
        0.000000000000000
        0.000000000000000
        0.000000000000000
        0.000000000000000
        0.000000000000000
        0.000000000000000
        0.000000000000000
        0.000000000000000
        0.000000000000000
       -0.000998694321344
       -0.002016131764463
       -0.002048242237616
       -0.001049026717789
        0.000000000000000
        0.000000000000000
        0.000000000000000
        0.000000000000000
       -0.000875583353324
       -0.003615739524503
       -0.007584769083164
       -0.007792460783336
       -0.003840214253226
       -0.001022640620178
        0.000000000000000
        0.000000000000000
       -0.000117399425156
       -0.001511060690635
       -0.007150620694584
       -0.017404381339756
       -0.017683526959070
       -0.007536358122224
       -0.001927447196395
        0.000000000000000
        0.000000000000000
        0.000080084885100
       -0.000858715669770
       -0.006581386189927
       -0.018057859515895
       -0.016241837611471
       -0.006843614162412
       -0.001777235397993
        0.000000000000000
        0.000000000000000
        0.000308441726639
        0.000586697582682
       -0.000662190825379
       -0.005321291801254
       -0.005716135498313
       -0.002861981770905
       -0.000789197567715
        0.000000000000000
        0.000000000000000
        0.000240106844229
        0.000701622914284
        0.000920008145950
        0.000004605285381
       -0.000700134516973
       -0.000499734242125
        0.000000000000000
        0.000000000000000
        0.000000000000000
        0.000000000000000
        0.000277953406285
        0.000471317944532
        0.000375012567879
        0.000123461508084
        0.000000000000000
        0.000000000000000
        0.000000000000000
        0.000000000000000
        0.000000000000000
        0.000000000000000
        0.000000000000000
        0.000000000000000
        0.000000000000000
        0.000000000000000
        0.000000000000000
        0.000000000000000
        0.000000000000000
        0.000000000000000
        0.000000000000000
        0.000000000000000
       -0.000542425784055
       -0.000537012629760
        0.000000000000000
        0.000000000000000
        0.000000000000000
        0.000000000000000
        0.000000000000000
       -0.000476171039896
       -0.001863885615797
       -0.003691751834660
       -0.003701503034416
       -0.001965066145741
       -0.000574552178768
        0.000000000000000
        0.000000000000000
       -0.000079427044213
       -0.001343629270194
       -0.006707963434150
       -0.016757689860431
       -0.017278878490073
       -0.007398897865038
       -0.001896968689864
        0.000000000000000
        0.000000000000000
        0.000202431453273
       -0.001229295217391
       -0.013499793585425
       -0.049130961199281
       -0.052510162117769
       -0.016448914539537
       -0.003374486195510
       -0.000470945125610
        0.000187411446601
        0.000936162676619
        0.001941514791156
       -0.007017972294506
       -0.047894597816521
       -0.043307698310410
       -0.014128785175446
       -0.003022046493830
       -0.000439094546324
        0.000206287230369
        0.001225915129881
        0.004580685779243
        0.009807241491337
       -0.000842307436183
       -0.007547603069178
       -0.004199030060040
       -0.001219858395921
        0.000000000000000
        0.000000000000000
        0.000761337710142
        0.002670691307139
        0.005599638663444
        0.004895379056252
        0.001423562307442
       -0.000104852621340
       -0.000151383343710
        0.000000000000000
        0.000000000000000
        0.000259953804689
        0.000853028523999
        0.001642169858467
        0.001729168944337
        0.000918898676514
        0.000262688069383
        0.000000000000000
        0.000000000000000
        0.000000000000000
        0.000000000000000
        0.000000000000000
        0.000290785225455
        0.000314997702042
        0.000000000000000
        0.000000000000000
        0.000000000000000
        0.000000000000000
        0.000000000000000
        0.000000000000000
        0.000000000000000
       -0.000286184202597
       -0.000598818131771
       -0.000519337763281
        0.000000000000000
        0.000000000000000
        0.000000000000000
        0.000000000000000
       -0.000007650369028
       -0.000365036579755
       -0.001670502438780
       -0.003474315951083
       -0.003438240316688
       -0.001803027850956
       -0.000536138135558
        0.000000000000000
        0.000000000000000
        0.000199444643612
       -0.000326620395473
       -0.005079162409086
       -0.015907033235024
       -0.015040442903021
       -0.006476613168125
       -0.001702679126222
        0.000000000000000
        0.000205634137729
        0.001081571181046
        0.002794685704946
       -0.003646366647482
       -0.042188729123859
       -0.040734348482740
       -0.013575149521331
       -0.002935723103875
       -0.000430704271878
        0.000384522869254
        0.002250348558019
        0.010433752313243
        0.027976048515962
        0.000087367893876
       -0.028479406581172
       -0.010847708164000
       -0.002396943020845
       -0.000416279767044
        0.000310260956051
        0.002217631633107
        0.010332046612727
        0.032836521395862
        0.042236385091490
        0.011018097431658
       -0.000082562651866
       -0.000575058898808
       -0.000127782806558
        0.000000000000000
        0.001187857134192
        0.004703809157677
        0.012008969244219
        0.015918783623866
        0.007983694673128
        0.001919324717217
        0.000228283463876
        0.000000000000000
        0.000000000000000
        0.000350150660333
        0.001312928054294
        0.002817075771453
        0.003476176923474
        0.002270592139284
        0.000816502289671
        0.000172275612869
        0.000000000000000
        0.000000000000000
        0.000000000000000
        0.000000000000000
        0.000418875658405
        0.000598973650063
        0.000384376352305
        0.000000000000000
        0.000000000000000
        0.000000000000000
        0.000000000000000
        0.000000000000000
        0.000000000000000
       -0.000151649572908
       -0.000260999425521
        0.000000000000000
        0.000000000000000
        0.000000000000000
        0.000000000000000
        0.000000000000000
        0.000060889316648
        0.000042712646987
       -0.000471570463326
       -0.001399128712728
       -0.001498184429243
       -0.000795410202104
        0.000000000000000
        0.000000000000000
        0.000000000000000
        0.000458814883948
        0.001246075035340
        0.001083869971030
       -0.003260822217397
       -0.004617499929348
       -0.002508026705782
       -0.000720737625234
        0.000000000000000
        0.000233552520869
        0.001457098082861
        0.005916707095936
        0.014769801632741
        0.005110949285152
       -0.005006650224893
       -0.003545644676281
       -0.001100258042160
        0.000000000000000
        0.000328483647179
        0.002363040137534
        0.011185217526517
        0.036208127042886
        0.047942253784152
        0.013591447259327
        0.000471073002250
       -0.000488735508853
       -0.000119392532112
        0.000000000000000
        0.001980289529311
        0.008668720334391
        0.025834969752611
        0.044918240587193
        0.027483662556730
        0.005528053192134
        0.000519094812075
       -0.000005320823474
        0.000000000000000
        0.000900318159466
        0.003853802925631
        0.009846376788904
        0.015139113152418
        0.010470021088211
        0.003320657781708
        0.000600056006247
        0.000000000000000
        0.000000000000000
        0.000000000000000
        0.000988503250842
        0.002433131153069
        0.003364431351860
        0.002508886326863
        0.001032645165607
        0.000233688667285
        0.000000000000000
        0.000000000000000
        0.000000000000000
        0.000000000000000
        0.000000000000000
        0.000488745450189
        0.000395408716958
        0.000000000000000
        0.000000000000000
        0.000000000000000
        0.000000000000000
        0.000000000000000
        0.000000000000000
        0.000000000000000
        0.000000000000000
        0.000000000000000
        0.000000000000000
        0.000000000000000
        0.000000000000000
        0.000000000000000
        0.000000000000000
        0.000152103930771
        0.000144274469968
       -0.000123031486077
       -0.000259292706322
        0.000000000000000
        0.000000000000000
        0.000000000000000
        0.000000000000000
        0.000326057512703
        0.001056890096902
        0.001719769777982
        0.000907700835840
       -0.000176952176105
       -0.000331570188021
        0.000000000000000
        0.000000000000000
        0.000000000000000
        0.000911710867451
        0.003330068759797
        0.007345699459854
        0.006955848640109
        0.002522197876407
        0.000249102443784
       -0.000082923401229
        0.000000000000000
        0.000000000000000
        0.001307216892703
        0.005235904431973
        0.013511193025061
        0.018069609904736
        0.009185089381578
        0.002286325711504
        0.000302839735647
        0.000000000000000
        0.000000000000000
        0.000938290540408
        0.004021234346072
        0.010289034049337
        0.015785804631743
        0.010874669557208
        0.003458118038893
        0.000630534512778
        0.000000000000000
        0.000000000000000
        0.000000000000000
        0.001675020520015
        0.004478135979091
        0.006677974581268
        0.005102603152526
        0.002009213794547
        0.000421094059548
        0.000000000000000
        0.000000000000000
        0.000000000000000
        0.000000000000000
        0.001132681988063
        0.001765277598045
        0.001420907869867
        0.000601692298075
        0.000000000000000
        0.000000000000000
        0.000000000000000
        0.000000000000000
        0.000000000000000
        0.000000000000000
        0.000000000000000
        0.000000000000000
        0.000000000000000
        0.000000000000000
        0.000000000000000
        0.000000000000000
        0.000000000000000
        0.000000000000000
        0.000000000000000
        0.000000000000000
        0.000000000000000
        0.000000000000000
        0.000000000000000
        0.000000000000000
        0.000000000000000
        0.000000000000000
        0.000000000000000
        0.000117605337142
        0.000082619584673
        0.000000000000000
        0.000000000000000
        0.000000000000000
        0.000000000000000
        0.000000000000000
        0.000000000000000
        0.000379203231045
        0.000688651548098
        0.000617413778979
        0.000263221052428
        0.000000000000000
        0.000000000000000
        0.000000000000000
        0.000000000000000
        0.000309071025956
        0.001039115007523
        0.002037379256210
        0.002190290211624
        0.001207444561905
        0.000363889074615
        0.000000000000000
        0.000000000000000
        0.000000000000000
        0.000393933084543
        0.001479447648520
        0.003190525662633
        0.003945865440416
        0.002584724616223
        0.000938149681246
        0.000199294564076
        0.000000000000000
        0.000000000000000
        0.000000000000000
        0.001058957131135
        0.002600880278297
        0.003591610294059
        0.002670990039248
        0.001098350187512
        0.000250390893766
        0.000000000000000
        0.000000000000000
        0.000000000000000
        0.000000000000000
        0.001165097218488
        0.001812130218212
        0.001456078758390
        0.000616660795282
        0.000000000000000
        0.000000000000000
        0.000000000000000
        0.000000000000000
        0.000000000000000
        0.000000000000000
        0.000517315467336
        0.000447365115202
        0.000000000000000
        0.000000000000000
        0.000000000000000
        0.000000000000000
        0.000000000000000
        0.000000000000000
        0.000000000000000
        0.000000000000000
        0.000000000000000
        0.000000000000000
        0.000000000000000
        0.000000000000000
        0.000000000000000
        0.000000000000000
        0.000000000000000
        0.000000000000000
        0.000000000000000
        0.000000000000000
        0.000000000000000
        0.000000000000000
        0.000000000000000
        0.000000000000000
        0.000000000000000
        0.000000000000000
        0.000000000000000
        0.000000000000000
        0.000000000000000
        0.000000000000000
        0.000000000000000
        0.000000000000000
        0.000000000000000
        0.000000000000000
        0.000000000000000
        0.000000000000000
        0.000000000000000
        0.000000000000000
        0.000000000000000
        0.000000000000000
        0.000000000000000
        0.000000000000000
        0.000000000000000
        0.000000000000000
        0.000350676588196
        0.000382783980430
        0.000000000000000
        0.000000000000000
        0.000000000000000
        0.000000000000000
        0.000000000000000
        0.000000000000000
        0.000000000000000
        0.000478021338425
        0.000679912027400
        0.000433711199810
        0.000000000000000
        0.000000000000000
        0.000000000000000
        0.000000000000000
        0.000000000000000
        0.000000000000000
        0.000000000000000
        0.000529535708908
        0.000427832851713
        0.000000000000000
        0.000000000000000
        0.000000000000000
        0.000000000000000
        0.000000000000000
        0.000000000000000
        0.000000000000000
        0.000000000000000
        0.000000000000000
        0.000000000000000
        0.000000000000000
        0.000000000000000
        0.000000000000000
        0.000000000000000
        0.000000000000000
        0.000000000000000
        0.000000000000000
        0.000000000000000
        0.000000000000000
        0.000000000000000
        0.000000000000000
        0.000000000000000
        0.000000000000000
        0.000000000000000
        0.000000000000000
        0.000000000000000
        0.000000000000000
        0.000000000000000
        0.000000000000000
        0.000000000000000
END_DATAGRID_3D
END_BLOCK_DATAGRID_3D
