ATOMS
         C    7.558905    7.558905    7.558905
         H    8.755769    8.755769    8.755769
         H    6.362040    6.362040    8.755769
         H    8.755769    6.362040    6.362040
         H    6.362040    8.755769    6.362040
BEGIN_BLOCK_DATAGRID_3D
units: coords = b, function = 1/hbar/H*b^-2
BEGIN_DATAGRID_3D_function
      9      9      9
0.0 0.0 0.0
   15.117809    0.000000    0.000000
    0.000000   15.117809    0.000000
    0.000000    0.000000   15.117809
        0.000000000000000
        0.000000000000000
        0.000000000000000
        0.000000000000000
        0.000000000000000
        0.000000000000000
        0.000000000000000
        0.000000000000000
        0.000000000000000
        0.000000000000000
        0.000000000000000
        0.000000000000000
        0.000000000000000
        0.000000000000000
        0.000000000000000
        0.000000000000000
        0.000000000000000
        0.000000000000000
        0.000000000000000
        0.000000000000000
        0.000000000000000
        0.000000000000000
        0.000000000000000
        0.000000000000000
        0.000000000000000
        0.000000000000000
        0.000000000000000
        0.000000000000000
        0.000000000000000
        0.000000000000000
        0.000000000000000
       -0.000000001311948
        0.000000000864000
        0.000000000000000
        0.000000000000000
        0.000000000000000
        0.000000000000000
        0.000000000000000
        0.000000000000000
       -0.000000000795189
       -0.000000000000488
        0.000000000791245
        0.000000000000000
        0.000000000000000
        0.000000000000000
        0.000000000000000
        0.000000000000000
        0.000000000000000
       -0.000000000865993
        0.000000001306886
        0.000000000000000
        0.000000000000000
        0.000000000000000
        0.000000000000000
        0.000000000000000
        0.000000000000000
        0.000000000000000
        0.000000000000000
        0.000000000000000
        0.000000000000000
        0.000000000000000
        0.000000000000000
        0.000000000000000
        0.000000000000000
        0.000000000000000
        0.000000000000000
        0.000000000000000
        0.000000000000000
        0.000000000000000
        0.000000000000000
        0.000000000000000
        0.000000000000000
        0.000000000000000
        0.000000000000000
        0.000000000000000
        0.000000000000000
        0.000000000000000
        0.000000000000000
        0.000000000000000
        0.000000000000000
        0.000000000000000
        0.000000000000000
        0.000000000000000
        0.000000000000000
        0.000000000000000
        0.000000000000000
        0.000000000000000
        0.000000000000000
        0.000000000000000
        0.000000000000000
        0.000000000000000
        0.000000000000000
        0.000000000000000
        0.000000000000000
       -0.000000000859083
        0.000000000793127
        0.000000000000000
        0.000000000000000
        0.000000000000000
        0.000000000000000
        0.000000000000000
        0.000000000000000
       -0.000000002401416
       -0.000000000239870
       -0.000000000024022
        0.000000001691042
        0.000000000000000
        0.000000000000000
        0.000000000000000
        0.000000000000000
       -0.000000001697594
       -0.000000005157825
       -0.000000012311477
        0.000000008613277
        0.000000005545294
       -0.000000000247864
        0.000000000000000
        0.000000000000000
        0.000000000187571
       -0.000000003089099
       -0.000000022381916
       -0.000000000015016
        0.000000022434963
        0.000000003104382
       -0.000000000184556
        0.000000000000000
        0.000000000000000
        0.000000000248537
       -0.000000005517178
       -0.000000008619918
        0.000000012325824
        0.000000005168833
        0.000000001701680
        0.000000000000000
        0.000000000000000
        0.000000000000000
        0.000000000000000
       -0.000000001691216
        0.000000000032556
        0.000000000240959
        0.000000002403654
        0.000000000000000
        0.000000000000000
        0.000000000000000
        0.000000000000000
        0.000000000000000
        0.000000000000000
       -0.000000000793454
        0.000000000860971
        0.000000000000000
        0.000000000000000
        0.000000000000000
        0.000000000000000
        0.000000000000000
        0.000000000000000
        0.000000000000000
        0.000000000000000
        0.000000000000000
        0.000000000000000
        0.000000000000000
        0.000000000000000
        0.000000000000000
        0.000000000000000
        0.000000000000000
        0.000000000000000
        0.000000000000000
        0.000000000000000
        0.000000000000000
        0.000000000000000
        0.000000000000000
        0.000000000000000
        0.000000000000000
        0.000000000000000
        0.000000000000000
       -0.000000001671179
       -0.000000001270717
        0.000000000898920
        0.000000001002206
        0.000000000000000
        0.000000000000000
        0.000000000000000
        0.000000000000000
       -0.000000003344544
        0.000000000860847
        0.000000009097756
       -0.000000010130149
       -0.000000004295777
        0.000000000641529
        0.000000000000000
        0.000000000000000
       -0.000000000027080
       -0.000000006099869
        0.000000126532708
        0.000000217553273
       -0.000000177263903
       -0.000000127753024
        0.000000006893012
        0.000000000000000
        0.000000000000000
       -0.000000004397254
        0.000000064829796
        0.000000512657082
        0.000000000021145
       -0.000000514109741
       -0.000000065215491
        0.000000004436051
        0.000000000000000
        0.000000000000000
       -0.000000006848524
        0.000000127168070
        0.000000178247676
       -0.000000217588089
       -0.000000127110332
        0.000000006083364
        0.000000000032985
        0.000000000000000
        0.000000000000000
       -0.000000000638769
        0.000000004262094
        0.000000010276069
       -0.000000009046025
       -0.000000000913233
        0.000000003348543
        0.000000000000000
        0.000000000000000
        0.000000000000000
        0.000000000000000
       -0.000000001004574
       -0.000000000894386
        0.000000001273564
        0.000000001670002
        0.000000000000000
        0.000000000000000
        0.000000000000000
        0.000000000000000
        0.000000000000000
        0.000000000000000
        0.000000000000000
        0.000000000000000
        0.000000000000000
        0.000000000000000
        0.000000000000000
        0.000000000000000
        0.000000000000000
        0.000000000000000
        0.000000000000000
        0.000000000000000
       -0.000000000505310
        0.000000000007742
        0.000000000000000
        0.000000000000000
        0.000000000000000
        0.000000000000000
        0.000000000000000
       -0.000000001099149
       -0.000000002709195
        0.000000000858105
       -0.000000000786829
        0.000000001395626
        0.000000000001012
        0.000000000000000
        0.000000000000000
       -0.000000000563376
       -0.000000001399431
        0.000000029682032
       -0.000000017130327
       -0.000000058186029
       -0.000000005932162
        0.000000000518864
        0.000000000000000
        0.000000000000000
       -0.000000008032203
        0.000000116005279
        0.000000372000938
       -0.000000627338736
       -0.000001177646095
       -0.000000095994676
        0.000000005857079
       -0.000000000025792
       -0.000000000168007
       -0.000000019447973
        0.000000428647161
        0.000001478373364
        0.000000008974013
       -0.000001487373529
       -0.000000430788382
        0.000000019571935
        0.000000000171280
        0.000000000026121
       -0.000000005794600
        0.000000095533980
        0.000001171697528
        0.000000630285017
       -0.000000373178773
       -0.000000116670270
        0.000000008076551
        0.000000000000000
        0.000000000000000
       -0.000000000509198
        0.000000005942902
        0.000000057961345
        0.000000017401755
       -0.000000029787191
        0.000000001355336
        0.000000000568457
        0.000000000000000
        0.000000000000000
       -0.000000000001389
       -0.000000001392284
        0.000000000803796
       -0.000000000833496
        0.000000002706919
        0.000000001099590
        0.000000000000000
        0.000000000000000
        0.000000000000000
        0.000000000000000
        0.000000000000000
       -0.000000000006997
        0.000000000504385
        0.000000000000000
        0.000000000000000
        0.000000000000000
        0.000000000000000
        0.000000000000000
        0.000000000000000
        0.000000000000000
        0.000000000006997
       -0.000000001496154
        0.000000000007742
        0.000000000000000
        0.000000000000000
        0.000000000000000
        0.000000000000000
        0.000000000001389
       -0.000000001957967
        0.000000000907459
       -0.000000000605250
        0.000000000916336
       -0.000000001951195
        0.000000000001012
        0.000000000000000
        0.000000000000000
       -0.000000001340722
        0.000000010289888
       -0.000000021338276
       -0.000000057653281
       -0.000000021687158
        0.000000010399850
       -0.000000001343029
        0.000000000000000
       -0.000000000026121
       -0.000000012413915
        0.000000204374794
       -0.000000614667462
       -0.000001534227412
       -0.000000620739705
        0.000000205382007
       -0.000000012441997
       -0.000000000025792
       -0.000000000000000
       -0.000000000000000
        0.000000000000000
       -0.000000000000000
       -0.000000000000000
       -0.000000000000000
       -0.000000000000000
        0.000000000000000
       -0.000000000000000
        0.000000000026121
        0.000000012413915
       -0.000000204374794
        0.000000614667462
        0.000001534227412
        0.000000620739705
       -0.000000205382007
        0.000000012441997
        0.000000000025792
        0.000000000000000
        0.000000001340722
       -0.000000010289888
        0.000000021338276
        0.000000057653281
        0.000000021687158
       -0.000000010399850
        0.000000001343029
        0.000000000000000
        0.000000000000000
       -0.000000000001389
        0.000000001957967
       -0.000000000907459
        0.000000000605250
       -0.000000000916336
        0.000000001951195
       -0.000000000001012
        0.000000000000000
        0.000000000000000
        0.000000000000000
        0.000000000000000
       -0.000000000006997
        0.000000001496154
       -0.000000000007742
        0.000000000000000
        0.000000000000000
        0.000000000000000
        0.000000000000000
        0.000000000000000
        0.000000000000000
        0.000000000006997
       -0.000000000504385
        0.000000000000000
        0.000000000000000
        0.000000000000000
        0.000000000000000
        0.000000000000000
        0.000000000001389
        0.000000001392284
       -0.000000000803796
        0.000000000833496
       -0.000000002706919
       -0.000000001099590
        0.000000000000000
        0.000000000000000
        0.000000000000000
        0.000000000509198
       -0.000000005942902
       -0.000000057961345
       -0.000000017401755
        0.000000029787191
       -0.000000001355336
       -0.000000000568457
        0.000000000000000
       -0.000000000026121
        0.000000005794600
       -0.000000095533980
       -0.000001171697528
       -0.000000630285017
        0.000000373178773
        0.000000116670270
       -0.000000008076551
        0.000000000000000
        0.000000000168007
        0.000000019447973
       -0.000000428647161
       -0.000001478373364
       -0.000000008974013
        0.000001487373529
        0.000000430788382
       -0.000000019571935
       -0.000000000171280
        0.000000000000000
        0.000000008032203
       -0.000000116005279
       -0.000000372000938
        0.000000627338736
        0.000001177646095
        0.000000095994676
       -0.000000005857079
        0.000000000025792
        0.000000000000000
        0.000000000563376
        0.000000001399431
       -0.000000029682032
        0.000000017130327
        0.000000058186029
        0.000000005932162
       -0.000000000518864
        0.000000000000000
        0.000000000000000
        0.000000000000000
        0.000000001099149
        0.000000002709195
       -0.000000000858105
        0.000000000786829
       -0.000000001395626
       -0.000000000001012
        0.000000000000000
        0.000000000000000
        0.000000000000000
        0.000000000000000
        0.000000000000000
        0.000000000505310
       -0.000000000007742
        0.000000000000000
        0.000000000000000
        0.000000000000000
        0.000000000000000
        0.000000000000000
        0.000000000000000
        0.000000000000000
        0.000000000000000
        0.000000000000000
        0.000000000000000
        0.000000000000000
        0.000000000000000
        0.000000000000000
        0.000000000000000
        0.000000001004574
        0.000000000894386
       -0.000000001273564
       -0.000000001670002
        0.000000000000000
        0.000000000000000
        0.000000000000000
        0.000000000000000
        0.000000000638769
       -0.000000004262094
       -0.000000010276069
        0.000000009046025
        0.000000000913233
       -0.000000003348543
        0.000000000000000
        0.000000000000000
        0.000000000000000
        0.000000006848524
       -0.000000127168070
       -0.000000178247676
        0.000000217588089
        0.000000127110332
       -0.000000006083364
       -0.000000000032985
        0.000000000000000
        0.000000000000000
        0.000000004397254
       -0.000000064829796
       -0.000000512657082
       -0.000000000021145
        0.000000514109741
        0.000000065215491
       -0.000000004436051
        0.000000000000000
        0.000000000000000
        0.000000000027080
        0.000000006099869
       -0.000000126532708
       -0.000000217553273
        0.000000177263903
        0.000000127753024
       -0.000000006893012
        0.000000000000000
        0.000000000000000
        0.000000000000000
        0.000000003344544
       -0.000000000860847
       -0.000000009097756
        0.000000010130149
        0.000000004295777
       -0.000000000641529
        0.000000000000000
        0.000000000000000
        0.000000000000000
        0.000000000000000
        0.000000001671179
        0.000000001270717
       -0.000000000898920
       -0.000000001002206
        0.000000000000000
        0.000000000000000
        0.000000000000000
        0.000000000000000
        0.000000000000000
        0.000000000000000
        0.000000000000000
        0.000000000000000
        0.000000000000000
        0.000000000000000
        0.000000000000000
        0.000000000000000
        0.000000000000000
        0.000000000000000
        0.000000000000000
        0.000000000000000
        0.000000000000000
        0.000000000000000
        0.000000000000000
        0.000000000000000
        0.000000000000000
        0.000000000000000
        0.000000000000000
        0.000000000793454
       -0.000000000860971
        0.000000000000000
        0.000000000000000
        0.000000000000000
        0.000000000000000
        0.000000000000000
        0.000000000000000
        0.000000001691216
       -0.000000000032556
       -0.000000000240959
       -0.000000002403654
        0.000000000000000
        0.000000000000000
        0.000000000000000
        0.000000000000000
       -0.000000000248537
        0.000000005517178
        0.000000008619918
       -0.000000012325824
       -0.000000005168833
       -0.000000001701680
        0.000000000000000
        0.000000000000000
        0.000000000000000
       -0.000000000187571
        0.000000003089099
        0.000000022381916
        0.000000000015016
       -0.000000022434963
       -0.000000003104382
        0.000000000184556
        0.000000000000000
        0.000000000000000
        0.000000000000000
        0.000000001697594
        0.000000005157825
        0.000000012311477
       -0.000000008613277
       -0.000000005545294
        0.000000000247864
        0.000000000000000
        0.000000000000000
        0.000000000000000
        0.000000000000000
        0.000000002401416
        0.000000000239870
        0.000000000024022
       -0.000000001691042
        0.000000000000000
        0.000000000000000
        0.000000000000000
        0.000000000000000
        0.000000000000000
        0.000000000000000
        0.000000000859083
       -0.000000000793127
        0.000000000000000
        0.000000000000000
        0.000000000000000
        0.000000000000000
        0.000000000000000
        0.000000000000000
        0.000000000000000
        0.000000000000000
        0.000000000000000
        0.000000000000000
        0.000000000000000
        0.000000000000000
        0.000000000000000
        0.000000000000000
        0.000000000000000
        0.000000000000000
        0.000000000000000
        0.000000000000000
        0.000000000000000
        0.000000000000000
        0.000000000000000
        0.000000000000000
        0.000000000000000
        0.000000000000000
        0.000000000000000
        0.000000000000000
        0.000000000000000
        0.000000000000000
        0.000000000000000
        0.000000000000000
        0.000000000000000
        0.000000000000000
        0.000000000000000
        0.000000000000000
        0.000000000000000
        0.000000000000000
        0.000000000000000
        0.000000000000000
        0.000000000000000
        0.000000000000000
        0.000000000000000
        0.000000000000000
        0.000000000865993
       -0.000000001306886
        0.000000000000000
        0.000000000000000
        0.000000000000000
        0.000000000000000
        0.000000000000000
        0.000000000000000
        0.000000000000000
        0.000000000795189
        0.000000000000488
       -0.000000000791245
        0.000000000000000
        0.000000000000000
        0.000000000000000
        0.000000000000000
        0.000000000000000
        0.000000000000000
        0.000000000000000
        0.000000001311948
       -0.000000000864000
        0.000000000000000
        0.000000000000000
        0.000000000000000
        0.000000000000000
        0.000000000000000
        0.000000000000000
        0.000000000000000
        0.000000000000000
        0.000000000000000
        0.000000000000000
        0.000000000000000
        0.000000000000000
        0.000000000000000
        0.000000000000000
        0.000000000000000
        0.000000000000000
        0.000000000000000
        0.000000000000000
        0.000000000000000
        0.000000000000000
        0.000000000000000
        0.000000000000000
        0.000000000000000
        0.000000000000000
        0.000000000000000
        0.000000000000000
        0.000000000000000
        0.000000000000000
        0.000000000000000
        0.000000000000000
END_DATAGRID_3D
END_BLOCK_DATAGRID_3D
