ATOMS
         C    7.558905    7.558905    7.558905
         H    8.755769    8.755769    8.755769
         H    6.362040    6.362040    8.755769
         H    8.755769    6.362040    6.362040
         H    6.362040    8.755769    6.362040
BEGIN_BLOCK_DATAGRID_3D
units: coords = b, function = sqrt(b^-3)
BEGIN_DATAGRID_3D_function
      9      9      9
0.0 0.0 0.0
   15.117809    0.000000    0.000000
    0.000000   15.117809    0.000000
    0.000000    0.000000   15.117809
        0.000000000000000
        0.000000000000000
        0.000000000000000
        0.000000000000000
        0.000000000000000
        0.000000000000000
        0.000000000000000
        0.000000000000000
        0.000000000000000
        0.000000000000000
        0.000000000000000
        0.000000000000000
        0.000000000000000
        0.000000000000000
        0.000000000000000
        0.000000000000000
        0.000000000000000
        0.000000000000000
        0.000000000000000
        0.000000000000000
        0.000000000000000
        0.000000000000000
        0.000000000000000
        0.000000000000000
        0.000000000000000
        0.000000000000000
        0.000000000000000
        0.000000000000000
        0.000000000000000
        0.000000000000000
        0.000000000000000
       -0.000058990510480
        0.000022427608450
        0.000000000000000
        0.000000000000000
        0.000000000000000
        0.000000000000000
        0.000000000000000
        0.000000000000000
       -0.000129143139166
       -0.000054601171270
        0.000057665053893
        0.000000000000000
        0.000000000000000
        0.000000000000000
        0.000000000000000
        0.000000000000000
        0.000000000000000
       -0.000083872715883
       -0.000014371012874
        0.000000000000000
        0.000000000000000
        0.000000000000000
        0.000000000000000
        0.000000000000000
        0.000000000000000
        0.000000000000000
        0.000000000000000
        0.000000000000000
        0.000000000000000
        0.000000000000000
        0.000000000000000
        0.000000000000000
        0.000000000000000
        0.000000000000000
        0.000000000000000
        0.000000000000000
        0.000000000000000
        0.000000000000000
        0.000000000000000
        0.000000000000000
        0.000000000000000
        0.000000000000000
        0.000000000000000
        0.000000000000000
        0.000000000000000
        0.000000000000000
        0.000000000000000
        0.000000000000000
        0.000000000000000
        0.000000000000000
        0.000000000000000
        0.000000000000000
        0.000000000000000
        0.000000000000000
        0.000000000000000
        0.000000000000000
        0.000000000000000
        0.000000000000000
        0.000000000000000
        0.000000000000000
        0.000000000000000
        0.000000000000000
        0.000000000000000
       -0.000127299024037
       -0.000043896094776
        0.000000000000000
        0.000000000000000
        0.000000000000000
        0.000000000000000
        0.000000000000000
        0.000000000000000
       -0.000456392125308
       -0.000384940255647
       -0.000005903175657
        0.000129783450097
        0.000000000000000
        0.000000000000000
        0.000000000000000
        0.000000000000000
       -0.000596284370681
       -0.000976896275525
       -0.000550611574111
        0.000263591317932
        0.000427376223932
        0.000195036318361
        0.000000000000000
        0.000000000000000
       -0.000288345967284
       -0.000831706521317
       -0.001105080266382
       -0.000317372676989
        0.000658137217454
        0.000667097620986
        0.000256861974699
        0.000000000000000
        0.000000000000000
       -0.000227216096939
       -0.000578550082221
       -0.000632581868045
        0.000085632003591
        0.000686558006085
        0.000502987939531
        0.000000000000000
        0.000000000000000
        0.000000000000000
        0.000000000000000
       -0.000202756518336
       -0.000164328862462
        0.000189625348157
        0.000348820901103
        0.000000000000000
        0.000000000000000
        0.000000000000000
        0.000000000000000
        0.000000000000000
        0.000000000000000
       -0.000001699050123
        0.000078977317178
        0.000000000000000
        0.000000000000000
        0.000000000000000
        0.000000000000000
        0.000000000000000
        0.000000000000000
        0.000000000000000
        0.000000000000000
        0.000000000000000
        0.000000000000000
        0.000000000000000
        0.000000000000000
        0.000000000000000
        0.000000000000000
        0.000000000000000
        0.000000000000000
        0.000000000000000
        0.000000000000000
        0.000000000000000
        0.000000000000000
        0.000000000000000
        0.000000000000000
        0.000000000000000
        0.000000000000000
        0.000000000000000
       -0.000606193894278
       -0.000601486006466
       -0.000168449542249
        0.000060599229661
        0.000000000000000
        0.000000000000000
        0.000000000000000
        0.000000000000000
       -0.001213805039261
       -0.002318439728155
       -0.001862831821380
        0.000028688919095
        0.000572441733161
        0.000278358814880
        0.000000000000000
        0.000000000000000
       -0.000856263847458
       -0.002925475871711
       -0.005061172971820
       -0.003168055703943
        0.001855628134699
        0.002002833398578
        0.000781053957172
        0.000000000000000
        0.000000000000000
       -0.001204050170828
       -0.003830070331265
       -0.006385314146516
       -0.001455106690721
        0.004666325179751
        0.003367649980699
        0.001144082120814
        0.000000000000000
        0.000000000000000
       -0.000855590653785
       -0.002457162422298
       -0.003268012257315
        0.001336542118357
        0.004116902027783
        0.002690711483396
        0.000836695331675
        0.000000000000000
        0.000000000000000
       -0.000319904402308
       -0.000789592267584
       -0.000569209147757
        0.001251950348046
        0.002012727772832
        0.001150280077618
        0.000000000000000
        0.000000000000000
        0.000000000000000
        0.000000000000000
       -0.000116969382647
        0.000041326679503
        0.000469336635970
        0.000546227742766
        0.000000000000000
        0.000000000000000
        0.000000000000000
        0.000000000000000
        0.000000000000000
        0.000000000000000
        0.000000000000000
        0.000000000000000
        0.000000000000000
        0.000000000000000
        0.000000000000000
        0.000000000000000
        0.000000000000000
        0.000000000000000
        0.000000000000000
        0.000000000000000
       -0.000247475517331
       -0.000127446869584
        0.000000000000000
        0.000000000000000
        0.000000000000000
        0.000000000000000
        0.000000000000000
       -0.000921882687992
       -0.001752201782383
       -0.001600559719179
       -0.000485580227552
        0.000123711468097
        0.000117841923831
        0.000000000000000
        0.000000000000000
       -0.001031754227649
       -0.003699357730454
       -0.007107054383168
       -0.006156810098790
       -0.000014424807949
        0.001367576167320
        0.000640188937948
        0.000000000000000
        0.000000000000000
       -0.002335052237845
       -0.008683401269594
       -0.018723002348986
       -0.013898317025639
        0.007821122341317
        0.005853845389896
        0.001879899786592
        0.000348408334730
       -0.000453444620568
       -0.002928424650952
       -0.011634267764382
       -0.026463237490977
       -0.003871917317173
        0.022914273236316
        0.011138880733035
        0.002952689999837
        0.000472340130777
       -0.000339761445936
       -0.001923505747193
       -0.006525891059976
       -0.011036125445521
        0.009854865530194
        0.017376362919827
        0.008604279383006
        0.002401622174898
        0.000000000000000
        0.000000000000000
       -0.000684497752306
       -0.001669824622024
       -0.000902316569072
        0.005196201455359
        0.006814023362364
        0.003732205831239
        0.001077657924666
        0.000000000000000
        0.000000000000000
       -0.000133459649177
       -0.000202126459574
        0.000315264284025
        0.001441623938550
        0.001708649436447
        0.000940967371483
        0.000000000000000
        0.000000000000000
        0.000000000000000
        0.000000000000000
        0.000000000000000
        0.000105866945098
        0.000228878419039
        0.000000000000000
        0.000000000000000
        0.000000000000000
        0.000000000000000
        0.000000000000000
        0.000000000000000
        0.000000000000000
       -0.000402452978216
       -0.000428669406463
       -0.000170373905461
        0.000000000000000
        0.000000000000000
        0.000000000000000
        0.000000000000000
       -0.000490686251875
       -0.001601327394447
       -0.002831088245179
       -0.002488083550795
       -0.000793587732376
        0.000104900532469
        0.000131980864283
        0.000000000000000
        0.000000000000000
       -0.001755717199520
       -0.006289495920282
       -0.013328071006448
       -0.011395222323744
       -0.000885824731296
        0.001671677620509
        0.000799505798080
        0.000000000000000
       -0.000537607099420
       -0.003600694267404
       -0.015577401039174
       -0.042043349883256
       -0.030241565515992
        0.011019994982589
        0.008580438728856
        0.002553798071716
        0.000433524889698
       -0.000704189252296
       -0.004123700845929
       -0.019106962652705
       -0.051230034177602
       -0.000127037210224
        0.052192166022146
        0.019879033788481
        0.004389874084495
        0.000762867226188
       -0.000407082943887
       -0.002444219474989
       -0.008464176223596
       -0.011408646670679
        0.030178607851609
        0.043440232598165
        0.016445109643422
        0.003876813440603
        0.000590024933480
        0.000000000000000
       -0.000785553177699
       -0.001728434502354
        0.000638052397068
        0.011380812514919
        0.013818179534776
        0.006677759919897
        0.001901702122239
        0.000000000000000
        0.000000000000000
       -0.000136645250868
       -0.000134876488226
        0.000731419898594
        0.002485834964792
        0.002933413591182
        0.001702630447016
        0.000534706229958
        0.000000000000000
        0.000000000000000
        0.000000000000000
        0.000000000000000
        0.000159516729412
        0.000428474621542
        0.000417757782523
        0.000000000000000
        0.000000000000000
        0.000000000000000
        0.000000000000000
        0.000000000000000
        0.000000000000000
       -0.000360622956158
       -0.000327704606999
        0.000000000000000
        0.000000000000000
        0.000000000000000
        0.000000000000000
        0.000000000000000
       -0.000454206980919
       -0.001438616475736
       -0.002459078138883
       -0.002045402135209
       -0.000646913821447
        0.000035251132539
        0.000000000000000
        0.000000000000000
        0.000000000000000
       -0.001550652322936
       -0.005504743082565
       -0.011337572219104
       -0.008185745278106
       -0.000960158890619
        0.001055022644092
        0.000520262554391
        0.000000000000000
       -0.000465706337879
       -0.002992397198823
       -0.012699850428939
       -0.033969734283014
       -0.017658732135174
        0.005632701015855
        0.005585121282920
        0.001848843922386
        0.000000000000000
       -0.000491245422739
       -0.003116489091441
       -0.012407309498389
       -0.026988759062959
        0.003808959652790
        0.031545954344438
        0.013886667639242
        0.003477921512482
        0.000551209692401
        0.000000000000000
       -0.001663436403679
       -0.004943423643640
       -0.003863604061563
        0.021631657356693
        0.038043061831382
        0.014157083516939
        0.003350259665385
        0.000524404734568
        0.000000000000000
       -0.000471830617434
       -0.000898522125949
        0.001360482425596
        0.009126754720362
        0.012491576204529
        0.006104168554059
        0.001735792540274
        0.000000000000000
        0.000000000000000
        0.000000000000000
       -0.000016371361031
        0.000709904729713
        0.002201014607787
        0.002671012106735
        0.001584627338538
        0.000506702829045
        0.000000000000000
        0.000000000000000
        0.000000000000000
        0.000000000000000
        0.000000000000000
        0.000345908258981
        0.000386984605855
        0.000000000000000
        0.000000000000000
        0.000000000000000
        0.000000000000000
        0.000000000000000
        0.000000000000000
        0.000000000000000
        0.000000000000000
        0.000000000000000
        0.000000000000000
        0.000000000000000
        0.000000000000000
        0.000000000000000
        0.000000000000000
       -0.000670662244088
       -0.001168745342725
       -0.000930602501283
       -0.000297118608924
        0.000000000000000
        0.000000000000000
        0.000000000000000
        0.000000000000000
       -0.000717132490362
       -0.002431618906760
       -0.004265358042014
       -0.002921555765776
       -0.000405010396787
        0.000373069959379
        0.000000000000000
        0.000000000000000
        0.000000000000000
       -0.001379559421456
       -0.004717405282291
       -0.008971876530861
       -0.004326085941104
        0.001736962443961
        0.002096516991935
        0.000761225147382
        0.000000000000000
        0.000000000000000
       -0.001337220206392
       -0.004187860091371
       -0.006304704462865
        0.001440696881895
        0.008266029623729
        0.004981787559707
        0.001557125799504
        0.000000000000000
        0.000000000000000
       -0.000647320997625
       -0.001672403984692
       -0.000685398985752
        0.006138000325515
        0.010621523261882
        0.005468911322801
        0.001594927521050
        0.000000000000000
        0.000000000000000
        0.000000000000000
       -0.000250258657633
        0.000739537466208
        0.003525676288406
        0.004900255538648
        0.002782105833300
        0.000823787683605
        0.000000000000000
        0.000000000000000
        0.000000000000000
        0.000000000000000
        0.000361012889234
        0.001061374699716
        0.001317984439011
        0.000759093745815
        0.000000000000000
        0.000000000000000
        0.000000000000000
        0.000000000000000
        0.000000000000000
        0.000000000000000
        0.000000000000000
        0.000000000000000
        0.000000000000000
        0.000000000000000
        0.000000000000000
        0.000000000000000
        0.000000000000000
        0.000000000000000
        0.000000000000000
        0.000000000000000
        0.000000000000000
        0.000000000000000
        0.000000000000000
        0.000000000000000
        0.000000000000000
        0.000000000000000
        0.000000000000000
       -0.000307729519977
       -0.000250872451454
        0.000000000000000
        0.000000000000000
        0.000000000000000
        0.000000000000000
        0.000000000000000
        0.000000000000000
       -0.000584875108399
       -0.000963089800761
       -0.000650891213470
       -0.000099711767261
        0.000000000000000
        0.000000000000000
        0.000000000000000
        0.000000000000000
       -0.000360450533158
       -0.001062192853089
       -0.001511231986814
       -0.000689410200251
        0.000375177608916
        0.000473230564492
        0.000000000000000
        0.000000000000000
        0.000000000000000
       -0.000338985535458
       -0.000904497361357
       -0.000994588080203
        0.000315124090986
        0.001481688641352
        0.001140433358499
        0.000409825119543
        0.000000000000000
        0.000000000000000
        0.000000000000000
       -0.000341969678342
       -0.000065400777145
        0.001151066462719
        0.001921840561251
        0.001280962582704
        0.000429508434516
        0.000000000000000
        0.000000000000000
        0.000000000000000
        0.000000000000000
        0.000211211120264
        0.000844828948897
        0.001155438072420
        0.000689909525379
        0.000000000000000
        0.000000000000000
        0.000000000000000
        0.000000000000000
        0.000000000000000
        0.000000000000000
        0.000298885233716
        0.000359173742982
        0.000000000000000
        0.000000000000000
        0.000000000000000
        0.000000000000000
        0.000000000000000
        0.000000000000000
        0.000000000000000
        0.000000000000000
        0.000000000000000
        0.000000000000000
        0.000000000000000
        0.000000000000000
        0.000000000000000
        0.000000000000000
        0.000000000000000
        0.000000000000000
        0.000000000000000
        0.000000000000000
        0.000000000000000
        0.000000000000000
        0.000000000000000
        0.000000000000000
        0.000000000000000
        0.000000000000000
        0.000000000000000
        0.000000000000000
        0.000000000000000
        0.000000000000000
        0.000000000000000
        0.000000000000000
        0.000000000000000
        0.000000000000000
        0.000000000000000
        0.000000000000000
        0.000000000000000
        0.000000000000000
        0.000000000000000
        0.000000000000000
        0.000000000000000
        0.000000000000000
        0.000000000000000
        0.000000000000000
       -0.000170883295176
       -0.000084455175086
        0.000000000000000
        0.000000000000000
        0.000000000000000
        0.000000000000000
        0.000000000000000
        0.000000000000000
        0.000000000000000
       -0.000113793109639
        0.000054406386349
        0.000189718823169
        0.000000000000000
        0.000000000000000
        0.000000000000000
        0.000000000000000
        0.000000000000000
        0.000000000000000
        0.000000000000000
        0.000157423252130
        0.000237110127821
        0.000000000000000
        0.000000000000000
        0.000000000000000
        0.000000000000000
        0.000000000000000
        0.000000000000000
        0.000000000000000
        0.000000000000000
        0.000000000000000
        0.000000000000000
        0.000000000000000
        0.000000000000000
        0.000000000000000
        0.000000000000000
        0.000000000000000
        0.000000000000000
        0.000000000000000
        0.000000000000000
        0.000000000000000
        0.000000000000000
        0.000000000000000
        0.000000000000000
        0.000000000000000
        0.000000000000000
        0.000000000000000
        0.000000000000000
        0.000000000000000
        0.000000000000000
        0.000000000000000
        0.000000000000000
END_DATAGRID_3D
END_BLOCK_DATAGRID_3D
