ATOMS
         C    7.558905    7.558905    7.558905
         H    8.755769    8.755769    8.755769
         H    6.362040    6.362040    8.755769
         H    8.755769    6.362040    6.362040
         H    6.362040    8.755769    6.362040
BEGIN_BLOCK_DATAGRID_3D
units: coords = b, function = sqrt(b^-3)
BEGIN_DATAGRID_3D_function
      9      9      9
0.0 0.0 0.0
   15.117809    0.000000    0.000000
    0.000000   15.117809    0.000000
    0.000000    0.000000   15.117809
        0.000000000000000
        0.000000000000000
        0.000000000000000
        0.000000000000000
        0.000000000000000
        0.000000000000000
        0.000000000000000
        0.000000000000000
        0.000000000000000
        0.000000000000000
        0.000000000000000
        0.000000000000000
        0.000000000000000
        0.000000000000000
        0.000000000000000
        0.000000000000000
        0.000000000000000
        0.000000000000000
        0.000000000000000
        0.000000000000000
        0.000000000000000
        0.000000000000000
        0.000000000000000
        0.000000000000000
        0.000000000000000
        0.000000000000000
        0.000000000000000
        0.000000000000000
        0.000000000000000
        0.000000000000000
        0.000000000000000
        0.000308536735446
        0.000217091338908
        0.000000000000000
        0.000000000000000
        0.000000000000000
        0.000000000000000
        0.000000000000000
        0.000000000000000
        0.000487846629874
        0.000616857089419
        0.000338187555978
        0.000000000000000
        0.000000000000000
        0.000000000000000
        0.000000000000000
        0.000000000000000
        0.000000000000000
        0.000485859625865
        0.000519019468492
        0.000000000000000
        0.000000000000000
        0.000000000000000
        0.000000000000000
        0.000000000000000
        0.000000000000000
        0.000000000000000
        0.000000000000000
        0.000000000000000
        0.000000000000000
        0.000000000000000
        0.000000000000000
        0.000000000000000
        0.000000000000000
        0.000000000000000
        0.000000000000000
        0.000000000000000
        0.000000000000000
        0.000000000000000
        0.000000000000000
        0.000000000000000
        0.000000000000000
        0.000000000000000
        0.000000000000000
        0.000000000000000
        0.000000000000000
        0.000000000000000
        0.000000000000000
        0.000000000000000
        0.000000000000000
        0.000000000000000
        0.000000000000000
        0.000000000000000
        0.000000000000000
        0.000000000000000
        0.000000000000000
        0.000000000000000
        0.000000000000000
        0.000000000000000
        0.000000000000000
        0.000000000000000
        0.000000000000000
        0.000000000000000
        0.000000000000000
        0.000009715586889
       -0.000018045789855
        0.000000000000000
        0.000000000000000
        0.000000000000000
        0.000000000000000
        0.000000000000000
        0.000000000000000
        0.000349600836829
        0.000385419258049
        0.000168638125247
        0.000019178796516
        0.000000000000000
        0.000000000000000
        0.000000000000000
        0.000000000000000
        0.000718972746642
        0.001528741074501
        0.001756278885786
        0.000982353438427
        0.000268909636994
        0.000036141773099
        0.000000000000000
        0.000000000000000
        0.000434965473283
        0.001550063976858
        0.003182790323418
        0.003579802241906
        0.002050763583427
        0.000634524873428
        0.000098261192663
        0.000000000000000
        0.000000000000000
        0.000460071886518
        0.001640911813508
        0.003260145136845
        0.003489583691516
        0.001943720989375
        0.000581818612919
        0.000000000000000
        0.000000000000000
        0.000000000000000
        0.000000000000000
        0.000862782665070
        0.001753823369514
        0.001819079880753
        0.000960632296976
        0.000000000000000
        0.000000000000000
        0.000000000000000
        0.000000000000000
        0.000000000000000
        0.000000000000000
        0.000522378057528
        0.000534267562234
        0.000000000000000
        0.000000000000000
        0.000000000000000
        0.000000000000000
        0.000000000000000
        0.000000000000000
        0.000000000000000
        0.000000000000000
        0.000000000000000
        0.000000000000000
        0.000000000000000
        0.000000000000000
        0.000000000000000
        0.000000000000000
        0.000000000000000
        0.000000000000000
        0.000000000000000
        0.000000000000000
        0.000000000000000
        0.000000000000000
        0.000000000000000
        0.000000000000000
        0.000000000000000
        0.000000000000000
        0.000000000000000
       -0.000107883448104
       -0.000275896550504
       -0.000327767283048
       -0.000192105047677
        0.000000000000000
        0.000000000000000
        0.000000000000000
        0.000000000000000
        0.000351631885766
        0.000569921394410
        0.000213022252648
       -0.000417194550778
       -0.000388395861674
       -0.000144665226491
        0.000000000000000
        0.000000000000000
        0.000571929502208
        0.002191613514624
        0.004753526406787
        0.005196470462599
        0.001639212073564
        0.000027429385867
       -0.000117654271166
        0.000000000000000
        0.000000000000000
        0.001334270082929
        0.005381224200094
        0.013523699937133
        0.016393307088436
        0.007040425601941
        0.001416128456280
        0.000116893151914
        0.000000000000000
        0.000000000000000
        0.001475366888839
        0.006005039924094
        0.014724183171189
        0.015436958478711
        0.006965255497261
        0.001743869628061
        0.000221505105272
        0.000000000000000
        0.000000000000000
        0.000791152154959
        0.003080712285923
        0.006504472900675
        0.006669999499259
        0.003405619965827
        0.000915607999132
        0.000000000000000
        0.000000000000000
        0.000000000000000
        0.000000000000000
        0.000846575132908
        0.001714969422663
        0.001766234781581
        0.000923336754824
        0.000000000000000
        0.000000000000000
        0.000000000000000
        0.000000000000000
        0.000000000000000
        0.000000000000000
        0.000000000000000
        0.000000000000000
        0.000000000000000
        0.000000000000000
        0.000000000000000
        0.000000000000000
        0.000000000000000
        0.000000000000000
        0.000000000000000
        0.000000000000000
       -0.000267083493693
       -0.000240614994501
        0.000000000000000
        0.000000000000000
        0.000000000000000
        0.000000000000000
        0.000000000000000
       -0.000275382089054
       -0.000838988544780
       -0.001450190434753
       -0.001305564862775
       -0.000658461612611
       -0.000199604591080
        0.000000000000000
        0.000000000000000
        0.000035993967890
       -0.000171768381366
       -0.001494454514710
       -0.003930979610738
       -0.004071800814596
       -0.001912602445464
       -0.000547846337889
        0.000000000000000
        0.000000000000000
        0.000775197307739
        0.002778945316237
        0.005424219140147
        0.001979711964015
       -0.005309214366741
       -0.002777706487551
       -0.000792102963736
       -0.000138740494279
        0.000301052972635
        0.002148301828547
        0.010600026460199
        0.034727170167372
        0.043493288470187
        0.010406875964073
       -0.000046793253474
       -0.000448295600286
       -0.000111811295194
        0.000335691420688
        0.002507219494506
        0.012849716136333
        0.043030133351567
        0.043401449378103
        0.013836421314240
        0.002084355347618
        0.000087465892349
        0.000000000000000
        0.000000000000000
        0.001443042768433
        0.005856290317088
        0.014277238665541
        0.014707763450406
        0.006455695638168
        0.001547102910031
        0.000175980692500
        0.000000000000000
        0.000000000000000
        0.000442358733722
        0.001569795113768
        0.003081071119856
        0.003233399792612
        0.001750620012212
        0.000499072340154
        0.000000000000000
        0.000000000000000
        0.000000000000000
        0.000000000000000
        0.000000000000000
        0.000450012623479
        0.000473063009411
        0.000000000000000
        0.000000000000000
        0.000000000000000
        0.000000000000000
        0.000000000000000
        0.000000000000000
        0.000000000000000
       -0.000346822794547
       -0.000525521537153
       -0.000358227719852
        0.000000000000000
        0.000000000000000
        0.000000000000000
        0.000000000000000
       -0.000182967819800
       -0.000800305162542
       -0.002088319166145
       -0.003049399260392
       -0.002382704426737
       -0.001082386313942
       -0.000283117117442
        0.000000000000000
        0.000000000000000
       -0.000350483026988
       -0.002129692157417
       -0.007679001335216
       -0.013963121435784
       -0.009915457825665
       -0.003763254322741
       -0.000935419205247
        0.000000000000000
        0.000044026558858
        0.000095236722038
       -0.001442030980263
       -0.012853420008490
       -0.037037800936550
       -0.025917430612090
       -0.007860098923199
       -0.001666484075345
       -0.000230350368074
        0.000250699491085
        0.001468085035508
        0.006802298952442
        0.018238482701515
        0.000045226711212
       -0.018581012728774
       -0.007077165176528
       -0.001562845776646
       -0.000271589526178
        0.000292293986106
        0.002056822250646
        0.010001109615738
        0.031882946928787
        0.037060214590790
        0.006528961824254
       -0.001049284769605
       -0.000622887749414
       -0.000134045167550
        0.000000000000000
        0.001255204574783
        0.004984167811450
        0.012196794239408
        0.013968251493829
        0.005311390442937
        0.000790758313463
       -0.000026241951510
        0.000000000000000
        0.000000000000000
        0.000406305066096
        0.001418413758189
        0.002835825300639
        0.003050199782929
        0.001620901754991
        0.000438884449635
        0.000045768826915
        0.000000000000000
        0.000000000000000
        0.000000000000000
        0.000000000000000
        0.000433310899474
        0.000525590882830
        0.000270156207997
        0.000000000000000
        0.000000000000000
        0.000000000000000
        0.000000000000000
        0.000000000000000
        0.000000000000000
       -0.000359316546941
       -0.000437879747316
        0.000000000000000
        0.000000000000000
        0.000000000000000
        0.000000000000000
        0.000000000000000
       -0.000233142639309
       -0.000985671715771
       -0.002317848675546
       -0.003018447794783
       -0.002128610129896
       -0.000846617380565
        0.000000000000000
        0.000000000000000
        0.000000000000000
       -0.000647303576824
       -0.003302061512216
       -0.009919697166394
       -0.013643451388705
       -0.008539738868254
       -0.003251411430163
       -0.000744858802451
        0.000000000000000
       -0.000048935604934
       -0.000757101379565
       -0.006005130549024
       -0.027007528500669
       -0.040623182910694
       -0.022027913303377
       -0.007135945547484
       -0.001600680818577
        0.000000000000000
        0.000035267572329
        0.000003757144136
       -0.002040947824724
       -0.015697643247075
       -0.043470874815947
       -0.029795344751909
       -0.008862590439330
       -0.001841076224472
       -0.000252584240430
        0.000000000000000
        0.000648310739666
        0.002072361430797
        0.002616873100327
       -0.004732870264943
       -0.011018963880281
       -0.004346414871481
       -0.001069894089796
       -0.000171991019405
        0.000000000000000
        0.000499299568949
        0.001808666610517
        0.003540300372978
        0.002873645090577
       -0.000370208908095
       -0.000747424802978
       -0.000298030456560
        0.000000000000000
        0.000000000000000
        0.000000000000000
        0.000609411345865
        0.001210058310204
        0.001236421572899
        0.000527525922070
        0.000050273305238
       -0.000022740540141
        0.000000000000000
        0.000000000000000
        0.000000000000000
        0.000000000000000
        0.000000000000000
        0.000232040303021
        0.000148216568668
        0.000000000000000
        0.000000000000000
        0.000000000000000
        0.000000000000000
        0.000000000000000
        0.000000000000000
        0.000000000000000
        0.000000000000000
        0.000000000000000
        0.000000000000000
        0.000000000000000
        0.000000000000000
        0.000000000000000
        0.000000000000000
       -0.000566169194673
       -0.001313595382675
       -0.001602018816467
       -0.001012022477981
        0.000000000000000
        0.000000000000000
        0.000000000000000
        0.000000000000000
       -0.000421955067129
       -0.001933923976597
       -0.004783311252524
       -0.006075600724820
       -0.003977985884036
       -0.001457938172128
        0.000000000000000
        0.000000000000000
        0.000000000000000
       -0.000679627697230
       -0.003450811119222
       -0.010366641672042
       -0.014372646417010
       -0.009049298727348
       -0.003448178148193
       -0.000790383215223
        0.000000000000000
        0.000000000000000
       -0.000429548535133
       -0.002526748546062
       -0.009005907032940
       -0.016388177030391
       -0.011644492984669
       -0.004388624465558
       -0.001078554308671
        0.000000000000000
        0.000000000000000
       -0.000036635965369
       -0.000554715285473
       -0.002707680548518
       -0.006253804982760
       -0.006081221796255
       -0.002687456634308
       -0.000728222523283
        0.000000000000000
        0.000000000000000
        0.000000000000000
        0.000169591666753
       -0.000007813988975
       -0.000805014050702
       -0.001337566492669
       -0.000805861740229
       -0.000247711631534
        0.000000000000000
        0.000000000000000
        0.000000000000000
        0.000000000000000
        0.000195170712129
        0.000112170874519
       -0.000081480391016
       -0.000099715100285
        0.000000000000000
        0.000000000000000
        0.000000000000000
        0.000000000000000
        0.000000000000000
        0.000000000000000
        0.000000000000000
        0.000000000000000
        0.000000000000000
        0.000000000000000
        0.000000000000000
        0.000000000000000
        0.000000000000000
        0.000000000000000
        0.000000000000000
        0.000000000000000
        0.000000000000000
        0.000000000000000
        0.000000000000000
        0.000000000000000
        0.000000000000000
        0.000000000000000
        0.000000000000000
       -0.000412217919755
       -0.000473070912978
        0.000000000000000
        0.000000000000000
        0.000000000000000
        0.000000000000000
        0.000000000000000
        0.000000000000000
       -0.000582376726835
       -0.001352449329527
       -0.001654863915639
       -0.001049318020132
        0.000000000000000
        0.000000000000000
        0.000000000000000
        0.000000000000000
       -0.000250855792105
       -0.001056788415512
       -0.002496922692536
       -0.003274631693687
       -0.002321711107060
       -0.000929363653330
        0.000000000000000
        0.000000000000000
        0.000000000000000
       -0.000211628226987
       -0.000931955381211
       -0.002435284188924
       -0.003579001719370
       -0.002812566255172
       -0.001278026737735
       -0.000335609483189
        0.000000000000000
        0.000000000000000
        0.000000000000000
       -0.000384943489832
       -0.001157671309076
       -0.001970047747640
       -0.001760392379132
       -0.000877097944368
       -0.000258486904319
        0.000000000000000
        0.000000000000000
        0.000000000000000
        0.000000000000000
       -0.000262313572805
       -0.000549144934034
       -0.000577885799311
       -0.000310998944477
        0.000000000000000
        0.000000000000000
        0.000000000000000
        0.000000000000000
        0.000000000000000
        0.000000000000000
       -0.000070802255428
       -0.000094196687147
        0.000000000000000
        0.000000000000000
        0.000000000000000
        0.000000000000000
        0.000000000000000
        0.000000000000000
        0.000000000000000
        0.000000000000000
        0.000000000000000
        0.000000000000000
        0.000000000000000
        0.000000000000000
        0.000000000000000
        0.000000000000000
        0.000000000000000
        0.000000000000000
        0.000000000000000
        0.000000000000000
        0.000000000000000
        0.000000000000000
        0.000000000000000
        0.000000000000000
        0.000000000000000
        0.000000000000000
        0.000000000000000
        0.000000000000000
        0.000000000000000
        0.000000000000000
        0.000000000000000
        0.000000000000000
        0.000000000000000
        0.000000000000000
        0.000000000000000
        0.000000000000000
        0.000000000000000
        0.000000000000000
        0.000000000000000
        0.000000000000000
        0.000000000000000
        0.000000000000000
        0.000000000000000
        0.000000000000000
       -0.000395163549327
       -0.000483836206398
        0.000000000000000
        0.000000000000000
        0.000000000000000
        0.000000000000000
        0.000000000000000
        0.000000000000000
        0.000000000000000
       -0.000401358524947
       -0.000616787743742
       -0.000426259067833
        0.000000000000000
        0.000000000000000
        0.000000000000000
        0.000000000000000
        0.000000000000000
        0.000000000000000
        0.000000000000000
       -0.000343579926118
       -0.000309489764741
        0.000000000000000
        0.000000000000000
        0.000000000000000
        0.000000000000000
        0.000000000000000
        0.000000000000000
        0.000000000000000
        0.000000000000000
        0.000000000000000
        0.000000000000000
        0.000000000000000
        0.000000000000000
        0.000000000000000
        0.000000000000000
        0.000000000000000
        0.000000000000000
        0.000000000000000
        0.000000000000000
        0.000000000000000
        0.000000000000000
        0.000000000000000
        0.000000000000000
        0.000000000000000
        0.000000000000000
        0.000000000000000
        0.000000000000000
        0.000000000000000
        0.000000000000000
        0.000000000000000
        0.000000000000000
END_DATAGRID_3D
END_BLOCK_DATAGRID_3D
