ATOMS
         C    7.558905    7.558905    7.558905
         H    8.755769    8.755769    8.755769
         H    6.362040    6.362040    8.755769
         H    8.755769    6.362040    6.362040
         H    6.362040    8.755769    6.362040
BEGIN_BLOCK_DATAGRID_3D
units: coords = b, function = 1/hbar/H*b^-2
BEGIN_DATAGRID_3D_function
      9      9      9
0.0 0.0 0.0
   15.117809    0.000000    0.000000
    0.000000   15.117809    0.000000
    0.000000    0.000000   15.117809
        0.000000000000000
        0.000000000000000
        0.000000000000000
        0.000000000000000
        0.000000000000000
        0.000000000000000
        0.000000000000000
        0.000000000000000
        0.000000000000000
        0.000000000000000
        0.000000000000000
        0.000000000000000
        0.000000000000000
        0.000000000000000
        0.000000000000000
        0.000000000000000
        0.000000000000000
        0.000000000000000
        0.000000000000000
        0.000000000000000
        0.000000000000000
        0.000000000000000
        0.000000000000000
        0.000000000000000
        0.000000000000000
        0.000000000000000
        0.000000000000000
        0.000000000000000
        0.000000000000000
        0.000000000000000
        0.000000000000000
        0.000000000000051
       -0.000000000000013
        0.000000000000000
        0.000000000000000
        0.000000000000000
        0.000000000000000
        0.000000000000000
        0.000000000000000
        0.000000000000013
       -0.000000000000001
       -0.000000000000013
        0.000000000000000
        0.000000000000000
        0.000000000000000
        0.000000000000000
        0.000000000000000
        0.000000000000000
        0.000000000000013
       -0.000000000000052
        0.000000000000000
        0.000000000000000
        0.000000000000000
        0.000000000000000
        0.000000000000000
        0.000000000000000
        0.000000000000000
        0.000000000000000
        0.000000000000000
        0.000000000000000
        0.000000000000000
        0.000000000000000
        0.000000000000000
        0.000000000000000
        0.000000000000000
        0.000000000000000
        0.000000000000000
        0.000000000000000
        0.000000000000000
        0.000000000000000
        0.000000000000000
        0.000000000000000
        0.000000000000000
        0.000000000000000
        0.000000000000000
        0.000000000000000
        0.000000000000000
        0.000000000000000
        0.000000000000000
        0.000000000000000
        0.000000000000000
        0.000000000000000
        0.000000000000000
        0.000000000000000
        0.000000000000000
        0.000000000000000
        0.000000000000000
        0.000000000000000
        0.000000000000000
        0.000000000000000
        0.000000000000000
        0.000000000000000
        0.000000000000000
        0.000000000000000
        0.000000000000061
        0.000000000000104
        0.000000000000000
        0.000000000000000
        0.000000000000000
        0.000000000000000
        0.000000000000000
        0.000000000000000
       -0.000000000000153
        0.000000000000287
       -0.000000000000180
        0.000000000000119
        0.000000000000000
        0.000000000000000
        0.000000000000000
        0.000000000000000
       -0.000000000000122
        0.000000000000048
        0.000000000000100
        0.000000000000269
        0.000000000000021
       -0.000000000000002
        0.000000000000000
        0.000000000000000
        0.000000000000002
       -0.000000000000017
       -0.000000000000397
       -0.000000000000001
        0.000000000000398
        0.000000000000015
       -0.000000000000002
        0.000000000000000
        0.000000000000000
        0.000000000000002
       -0.000000000000019
       -0.000000000000270
       -0.000000000000098
       -0.000000000000051
        0.000000000000121
        0.000000000000000
        0.000000000000000
        0.000000000000000
        0.000000000000000
       -0.000000000000118
        0.000000000000181
       -0.000000000000288
        0.000000000000151
        0.000000000000000
        0.000000000000000
        0.000000000000000
        0.000000000000000
        0.000000000000000
        0.000000000000000
       -0.000000000000103
       -0.000000000000062
        0.000000000000000
        0.000000000000000
        0.000000000000000
        0.000000000000000
        0.000000000000000
        0.000000000000000
        0.000000000000000
        0.000000000000000
        0.000000000000000
        0.000000000000000
        0.000000000000000
        0.000000000000000
        0.000000000000000
        0.000000000000000
        0.000000000000000
        0.000000000000000
        0.000000000000000
        0.000000000000000
        0.000000000000000
        0.000000000000000
        0.000000000000000
        0.000000000000000
        0.000000000000000
        0.000000000000000
        0.000000000000000
       -0.000000000000189
        0.000000000000347
       -0.000000000000274
        0.000000000000221
        0.000000000000000
        0.000000000000000
        0.000000000000000
        0.000000000000000
       -0.000000000000502
        0.000000000000275
       -0.000000000000727
        0.000000000001778
       -0.000000000000490
        0.000000000000119
        0.000000000000000
        0.000000000000000
       -0.000000000000121
        0.000000000000053
        0.000000000000186
        0.000000000001731
        0.000000000002426
        0.000000000000625
        0.000000000000020
        0.000000000000000
        0.000000000000000
       -0.000000000000017
       -0.000000000000632
        0.000000000000018
       -0.000000000000014
       -0.000000000000031
        0.000000000000638
        0.000000000000016
        0.000000000000000
        0.000000000000000
       -0.000000000000020
       -0.000000000000628
       -0.000000000002444
       -0.000000000001743
       -0.000000000000175
       -0.000000000000057
        0.000000000000121
        0.000000000000000
        0.000000000000000
       -0.000000000000119
        0.000000000000490
       -0.000000000001780
        0.000000000000731
       -0.000000000000277
        0.000000000000498
        0.000000000000000
        0.000000000000000
        0.000000000000000
        0.000000000000000
       -0.000000000000220
        0.000000000000273
       -0.000000000000347
        0.000000000000186
        0.000000000000000
        0.000000000000000
        0.000000000000000
        0.000000000000000
        0.000000000000000
        0.000000000000000
        0.000000000000000
        0.000000000000000
        0.000000000000000
        0.000000000000000
        0.000000000000000
        0.000000000000000
        0.000000000000000
        0.000000000000000
        0.000000000000000
        0.000000000000000
        0.000000000000010
       -0.000000000000103
        0.000000000000000
        0.000000000000000
        0.000000000000000
        0.000000000000000
        0.000000000000000
       -0.000000000000188
        0.000000000000302
        0.000000000000029
        0.000000000000279
       -0.000000000000269
        0.000000000000103
        0.000000000000000
        0.000000000000000
       -0.000000000000152
        0.000000000000269
       -0.000000000000940
       -0.000000000002188
        0.000000000012301
        0.000000000001717
       -0.000000000000176
        0.000000000000000
        0.000000000000000
        0.000000000000045
        0.000000000000221
       -0.000000000007330
       -0.000000000046035
       -0.000000000031810
        0.000000000002422
        0.000000000000273
       -0.000000000000013
        0.000000000000013
       -0.000000000000406
        0.000000000000148
        0.000000000034177
       -0.000000000000680
       -0.000000000034748
        0.000000000000099
        0.000000000000389
       -0.000000000000013
        0.000000000000013
       -0.000000000000266
       -0.000000000002448
        0.000000000031115
        0.000000000045494
        0.000000000007493
       -0.000000000000140
       -0.000000000000054
        0.000000000000000
        0.000000000000000
        0.000000000000186
       -0.000000000001841
       -0.000000000012286
        0.000000000002384
        0.000000000001021
       -0.000000000000283
        0.000000000000152
        0.000000000000000
        0.000000000000000
       -0.000000000000104
        0.000000000000277
       -0.000000000000277
       -0.000000000000043
       -0.000000000000306
        0.000000000000187
        0.000000000000000
        0.000000000000000
        0.000000000000000
        0.000000000000000
        0.000000000000000
        0.000000000000104
       -0.000000000000012
        0.000000000000000
        0.000000000000000
        0.000000000000000
        0.000000000000000
        0.000000000000000
        0.000000000000000
        0.000000000000000
        0.000000000000011
       -0.000000000000291
        0.000000000000011
        0.000000000000000
        0.000000000000000
        0.000000000000000
        0.000000000000000
        0.000000000000061
        0.000000000000346
        0.000000000000027
        0.000000000002888
        0.000000000000045
        0.000000000000348
        0.000000000000061
        0.000000000000000
        0.000000000000000
        0.000000000000286
       -0.000000000000715
       -0.000000000002135
       -0.000000000051050
       -0.000000000002436
       -0.000000000000743
        0.000000000000290
        0.000000000000000
        0.000000000000052
        0.000000000000084
        0.000000000001925
       -0.000000000045000
       -0.000000000259579
       -0.000000000046529
        0.000000000001549
        0.000000000000114
        0.000000000000052
       -0.000000000000000
        0.000000000000000
       -0.000000000000000
        0.000000000000000
        0.000000000000000
       -0.000000000000000
       -0.000000000000000
        0.000000000000000
       -0.000000000000000
       -0.000000000000052
       -0.000000000000084
       -0.000000000001925
        0.000000000045000
        0.000000000259579
        0.000000000046529
       -0.000000000001549
       -0.000000000000114
       -0.000000000000052
        0.000000000000000
       -0.000000000000286
        0.000000000000715
        0.000000000002135
        0.000000000051050
        0.000000000002436
        0.000000000000743
       -0.000000000000290
        0.000000000000000
        0.000000000000000
       -0.000000000000061
       -0.000000000000346
       -0.000000000000027
       -0.000000000002888
       -0.000000000000045
       -0.000000000000348
       -0.000000000000061
        0.000000000000000
        0.000000000000000
        0.000000000000000
        0.000000000000000
       -0.000000000000011
        0.000000000000291
       -0.000000000000011
        0.000000000000000
        0.000000000000000
        0.000000000000000
        0.000000000000000
        0.000000000000000
        0.000000000000000
       -0.000000000000104
        0.000000000000012
        0.000000000000000
        0.000000000000000
        0.000000000000000
        0.000000000000000
        0.000000000000000
        0.000000000000104
       -0.000000000000277
        0.000000000000277
        0.000000000000043
        0.000000000000306
       -0.000000000000187
        0.000000000000000
        0.000000000000000
        0.000000000000000
       -0.000000000000186
        0.000000000001841
        0.000000000012286
       -0.000000000002384
       -0.000000000001021
        0.000000000000283
       -0.000000000000152
        0.000000000000000
       -0.000000000000013
        0.000000000000266
        0.000000000002448
       -0.000000000031115
       -0.000000000045494
       -0.000000000007493
        0.000000000000140
        0.000000000000054
        0.000000000000000
       -0.000000000000013
        0.000000000000406
       -0.000000000000148
       -0.000000000034177
        0.000000000000680
        0.000000000034748
       -0.000000000000099
       -0.000000000000389
        0.000000000000013
        0.000000000000000
       -0.000000000000045
       -0.000000000000221
        0.000000000007330
        0.000000000046035
        0.000000000031810
       -0.000000000002422
       -0.000000000000273
        0.000000000000013
        0.000000000000000
        0.000000000000152
       -0.000000000000269
        0.000000000000940
        0.000000000002188
       -0.000000000012301
       -0.000000000001717
        0.000000000000176
        0.000000000000000
        0.000000000000000
        0.000000000000000
        0.000000000000188
       -0.000000000000302
       -0.000000000000029
       -0.000000000000279
        0.000000000000269
       -0.000000000000103
        0.000000000000000
        0.000000000000000
        0.000000000000000
        0.000000000000000
        0.000000000000000
       -0.000000000000010
        0.000000000000103
        0.000000000000000
        0.000000000000000
        0.000000000000000
        0.000000000000000
        0.000000000000000
        0.000000000000000
        0.000000000000000
        0.000000000000000
        0.000000000000000
        0.000000000000000
        0.000000000000000
        0.000000000000000
        0.000000000000000
        0.000000000000000
        0.000000000000220
       -0.000000000000273
        0.000000000000347
       -0.000000000000186
        0.000000000000000
        0.000000000000000
        0.000000000000000
        0.000000000000000
        0.000000000000119
       -0.000000000000490
        0.000000000001780
       -0.000000000000731
        0.000000000000277
       -0.000000000000498
        0.000000000000000
        0.000000000000000
        0.000000000000000
        0.000000000000020
        0.000000000000628
        0.000000000002444
        0.000000000001743
        0.000000000000175
        0.000000000000057
       -0.000000000000121
        0.000000000000000
        0.000000000000000
        0.000000000000017
        0.000000000000632
       -0.000000000000018
        0.000000000000014
        0.000000000000031
       -0.000000000000638
       -0.000000000000016
        0.000000000000000
        0.000000000000000
        0.000000000000121
       -0.000000000000053
       -0.000000000000186
       -0.000000000001731
       -0.000000000002426
       -0.000000000000625
       -0.000000000000020
        0.000000000000000
        0.000000000000000
        0.000000000000000
        0.000000000000502
       -0.000000000000275
        0.000000000000727
       -0.000000000001778
        0.000000000000490
       -0.000000000000119
        0.000000000000000
        0.000000000000000
        0.000000000000000
        0.000000000000000
        0.000000000000189
       -0.000000000000347
        0.000000000000274
       -0.000000000000221
        0.000000000000000
        0.000000000000000
        0.000000000000000
        0.000000000000000
        0.000000000000000
        0.000000000000000
        0.000000000000000
        0.000000000000000
        0.000000000000000
        0.000000000000000
        0.000000000000000
        0.000000000000000
        0.000000000000000
        0.000000000000000
        0.000000000000000
        0.000000000000000
        0.000000000000000
        0.000000000000000
        0.000000000000000
        0.000000000000000
        0.000000000000000
        0.000000000000000
        0.000000000000000
        0.000000000000103
        0.000000000000062
        0.000000000000000
        0.000000000000000
        0.000000000000000
        0.000000000000000
        0.000000000000000
        0.000000000000000
        0.000000000000118
       -0.000000000000181
        0.000000000000288
       -0.000000000000151
        0.000000000000000
        0.000000000000000
        0.000000000000000
        0.000000000000000
       -0.000000000000002
        0.000000000000019
        0.000000000000270
        0.000000000000098
        0.000000000000051
       -0.000000000000121
        0.000000000000000
        0.000000000000000
        0.000000000000000
       -0.000000000000002
        0.000000000000017
        0.000000000000397
        0.000000000000001
       -0.000000000000398
       -0.000000000000015
        0.000000000000002
        0.000000000000000
        0.000000000000000
        0.000000000000000
        0.000000000000122
       -0.000000000000048
       -0.000000000000100
       -0.000000000000269
       -0.000000000000021
        0.000000000000002
        0.000000000000000
        0.000000000000000
        0.000000000000000
        0.000000000000000
        0.000000000000153
       -0.000000000000287
        0.000000000000180
       -0.000000000000119
        0.000000000000000
        0.000000000000000
        0.000000000000000
        0.000000000000000
        0.000000000000000
        0.000000000000000
       -0.000000000000061
       -0.000000000000104
        0.000000000000000
        0.000000000000000
        0.000000000000000
        0.000000000000000
        0.000000000000000
        0.000000000000000
        0.000000000000000
        0.000000000000000
        0.000000000000000
        0.000000000000000
        0.000000000000000
        0.000000000000000
        0.000000000000000
        0.000000000000000
        0.000000000000000
        0.000000000000000
        0.000000000000000
        0.000000000000000
        0.000000000000000
        0.000000000000000
        0.000000000000000
        0.000000000000000
        0.000000000000000
        0.000000000000000
        0.000000000000000
        0.000000000000000
        0.000000000000000
        0.000000000000000
        0.000000000000000
        0.000000000000000
        0.000000000000000
        0.000000000000000
        0.000000000000000
        0.000000000000000
        0.000000000000000
        0.000000000000000
        0.000000000000000
        0.000000000000000
        0.000000000000000
        0.000000000000000
        0.000000000000000
        0.000000000000000
       -0.000000000000013
        0.000000000000052
        0.000000000000000
        0.000000000000000
        0.000000000000000
        0.000000000000000
        0.000000000000000
        0.000000000000000
        0.000000000000000
       -0.000000000000013
        0.000000000000001
        0.000000000000013
        0.000000000000000
        0.000000000000000
        0.000000000000000
        0.000000000000000
        0.000000000000000
        0.000000000000000
        0.000000000000000
       -0.000000000000051
        0.000000000000013
        0.000000000000000
        0.000000000000000
        0.000000000000000
        0.000000000000000
        0.000000000000000
        0.000000000000000
        0.000000000000000
        0.000000000000000
        0.000000000000000
        0.000000000000000
        0.000000000000000
        0.000000000000000
        0.000000000000000
        0.000000000000000
        0.000000000000000
        0.000000000000000
        0.000000000000000
        0.000000000000000
        0.000000000000000
        0.000000000000000
        0.000000000000000
        0.000000000000000
        0.000000000000000
        0.000000000000000
        0.000000000000000
        0.000000000000000
        0.000000000000000
        0.000000000000000
        0.000000000000000
        0.000000000000000
END_DATAGRID_3D
END_BLOCK_DATAGRID_3D
