ATOMS
         C    7.558905    7.558905    7.558905
         H    8.755769    8.755769    8.755769
         H    6.362040    6.362040    8.755769
         H    8.755769    6.362040    6.362040
         H    6.362040    8.755769    6.362040
BEGIN_BLOCK_DATAGRID_3D
units: coords = b, function = sqrt(b^-3)
BEGIN_DATAGRID_3D_function
      9      9      9
0.0 0.0 0.0
   15.117809    0.000000    0.000000
    0.000000   15.117809    0.000000
    0.000000    0.000000   15.117809
        0.000000000000000
        0.000000000000000
        0.000000000000000
        0.000000000000000
        0.000000000000000
        0.000000000000000
        0.000000000000000
        0.000000000000000
        0.000000000000000
        0.000000000000000
        0.000000000000000
        0.000000000000000
        0.000000000000000
        0.000000000000000
        0.000000000000000
        0.000000000000000
        0.000000000000000
        0.000000000000000
        0.000000000000000
        0.000000000000000
        0.000000000000000
        0.000000000000000
        0.000000000000000
        0.000000000000000
        0.000000000000000
        0.000000000000000
        0.000000000000000
        0.000000000000000
        0.000000000000000
        0.000000000000000
        0.000000000000000
        0.000770192199401
        0.000536762455425
        0.000000000000000
        0.000000000000000
        0.000000000000000
        0.000000000000000
        0.000000000000000
        0.000000000000000
        0.001230581930568
        0.001540468754069
        0.000836131205127
        0.000000000000000
        0.000000000000000
        0.000000000000000
        0.000000000000000
        0.000000000000000
        0.000000000000000
        0.001225485692079
        0.001296520922678
        0.000000000000000
        0.000000000000000
        0.000000000000000
        0.000000000000000
        0.000000000000000
        0.000000000000000
        0.000000000000000
        0.000000000000000
        0.000000000000000
        0.000000000000000
        0.000000000000000
        0.000000000000000
        0.000000000000000
        0.000000000000000
        0.000000000000000
        0.000000000000000
        0.000000000000000
        0.000000000000000
        0.000000000000000
        0.000000000000000
        0.000000000000000
        0.000000000000000
        0.000000000000000
        0.000000000000000
        0.000000000000000
        0.000000000000000
        0.000000000000000
        0.000000000000000
        0.000000000000000
        0.000000000000000
        0.000000000000000
        0.000000000000000
        0.000000000000000
        0.000000000000000
        0.000000000000000
        0.000000000000000
        0.000000000000000
        0.000000000000000
        0.000000000000000
        0.000000000000000
        0.000000000000000
        0.000000000000000
        0.000000000000000
        0.000000000000000
        0.000024177199568
       -0.000044692174371
        0.000000000000000
        0.000000000000000
        0.000000000000000
        0.000000000000000
        0.000000000000000
        0.000000000000000
        0.000881810816039
        0.000962403300759
        0.000416633788976
        0.000046810388521
        0.000000000000000
        0.000000000000000
        0.000000000000000
        0.000000000000000
        0.001832758648359
        0.003857254180814
        0.004385627175801
        0.002427860846191
        0.000657876407540
        0.000087507659663
        0.000000000000000
        0.000000000000000
        0.001120652210554
        0.003952060632193
        0.008030662507339
        0.008939199666567
        0.005068568997329
        0.001552502460644
        0.000238060360859
        0.000000000000000
        0.000000000000000
        0.001185307397595
        0.004183781700950
        0.008225462932762
        0.008713604174013
        0.004804077801312
        0.001423790542463
        0.000000000000000
        0.000000000000000
        0.000000000000000
        0.000000000000000
        0.002199314742574
        0.004425024163021
        0.004542159542472
        0.002374738264443
        0.000000000000000
        0.000000000000000
        0.000000000000000
        0.000000000000000
        0.000000000000000
        0.000000000000000
        0.001317507122120
        0.001334535247019
        0.000000000000000
        0.000000000000000
        0.000000000000000
        0.000000000000000
        0.000000000000000
        0.000000000000000
        0.000000000000000
        0.000000000000000
        0.000000000000000
        0.000000000000000
        0.000000000000000
        0.000000000000000
        0.000000000000000
        0.000000000000000
        0.000000000000000
        0.000000000000000
        0.000000000000000
        0.000000000000000
        0.000000000000000
        0.000000000000000
        0.000000000000000
        0.000000000000000
        0.000000000000000
        0.000000000000000
        0.000000000000000
       -0.000272380627788
       -0.000689352466109
       -0.000810523090127
       -0.000470353285064
        0.000000000000000
        0.000000000000000
        0.000000000000000
        0.000000000000000
        0.000896164807625
        0.001437457448940
        0.000530746841835
       -0.001032534671151
       -0.000950911188738
       -0.000350672194790
        0.000000000000000
        0.000000000000000
        0.001473437103854
        0.005587948988638
        0.011992923465708
        0.012973805545708
        0.004048320640983
        0.000066136430409
       -0.000285294010142
        0.000000000000000
        0.000000000000000
        0.003437837974805
        0.013721548179521
        0.034120505771825
        0.040933530325896
        0.017397989871598
        0.003463667258300
        0.000282993106172
        0.000000000000000
        0.000000000000000
        0.003801744711453
        0.015312015375636
        0.037148595922003
        0.038544689294891
        0.017213161832226
        0.004266144894404
        0.000536700071202
        0.000000000000000
        0.000000000000000
        0.002038311996168
        0.007855266853432
        0.016410685886884
        0.016654467599005
        0.008416635958372
        0.002240522091232
        0.000000000000000
        0.000000000000000
        0.000000000000000
        0.000000000000000
        0.002157992981663
        0.004326973428353
        0.004410183059644
        0.002282517540122
        0.000000000000000
        0.000000000000000
        0.000000000000000
        0.000000000000000
        0.000000000000000
        0.000000000000000
        0.000000000000000
        0.000000000000000
        0.000000000000000
        0.000000000000000
        0.000000000000000
        0.000000000000000
        0.000000000000000
        0.000000000000000
        0.000000000000000
        0.000000000000000
       -0.000666885070847
       -0.000595068181511
        0.000000000000000
        0.000000000000000
        0.000000000000000
        0.000000000000000
        0.000000000000000
       -0.000702257418796
       -0.002117535747968
       -0.003622459184801
       -0.003228027861529
       -0.001611733727132
       -0.000483751844599
        0.000000000000000
        0.000000000000000
        0.000092612469659
       -0.000438775768506
       -0.003773432310507
       -0.009820994236112
       -0.010068836425700
       -0.004681421004786
       -0.001327747273448
        0.000000000000000
        0.000000000000000
        0.001997189389773
        0.007084559351546
        0.013677658814436
        0.004929399640178
       -0.013140377421065
       -0.006801869491000
       -0.001919152234915
       -0.000333141950142
        0.000783192722622
        0.005537594382769
        0.027024054694681
        0.087589072200950
        0.108588555003870
        0.025713878639750
       -0.000121678291457
       -0.001086300238799
       -0.000268380185951
        0.000873125533529
        0.006464678444198
        0.032753658946116
        0.108549738839021
        0.108373548414958
        0.034195830754036
        0.005095428125767
        0.000211963278014
        0.000000000000000
        0.000000000000000
        0.003718451913350
        0.014932682017314
        0.036020624730157
        0.036723368273893
        0.015953418707340
        0.003784605319699
        0.000426371217252
        0.000000000000000
        0.000000000000000
        0.001139663334440
        0.004002438167558
        0.007773553278290
        0.008073752270091
        0.004326687806924
        0.001221240963316
        0.000000000000000
        0.000000000000000
        0.000000000000000
        0.000000000000000
        0.000000000000000
        0.001135051595633
        0.001181697404510
        0.000000000000000
        0.000000000000000
        0.000000000000000
        0.000000000000000
        0.000000000000000
        0.000000000000000
        0.000000000000000
       -0.000875004669383
       -0.001312513406077
       -0.000885880560034
        0.000000000000000
        0.000000000000000
        0.000000000000000
        0.000000000000000
       -0.000471485281094
       -0.002040829702190
       -0.005270200679379
       -0.007616395567408
       -0.005890633729126
       -0.002649179351851
       -0.000686167688748
        0.000000000000000
        0.000000000000000
       -0.000903296643219
       -0.005432166350229
       -0.019380378725786
       -0.034876271916352
       -0.024514516381104
       -0.009210015473563
       -0.002266932974705
        0.000000000000000
        0.000114683373504
        0.000244817399987
       -0.003682030237052
       -0.032436977007801
       -0.092519846736942
       -0.064099634579553
       -0.019239384883542
       -0.004037416681891
       -0.000553314689900
        0.000652281639391
        0.003785130673691
        0.017332507921154
        0.045979711933953
        0.000000001241104
       -0.045979705858340
       -0.017332504663578
       -0.003785129375242
       -0.000652281353005
        0.000760426241219
        0.005301797962003
        0.025496535789295
        0.080412906842024
        0.092519848006895
        0.016123711188976
       -0.002575116266201
       -0.001509196814804
       -0.000321794545811
        0.000000000000000
        0.003234096967461
        0.012708911537515
        0.030771665835680
        0.034876272203806
        0.013123230858448
        0.001933271901677
       -0.000063866584427
        0.000000000000000
        0.000000000000000
        0.001046805696254
        0.003616343139190
        0.007155014176445
        0.007616395612480
        0.004005820504807
        0.001073666283147
        0.000110847462235
        0.000000000000000
        0.000000000000000
        0.000000000000000
        0.000000000000000
        0.001092991930268
        0.001312513412548
        0.000667893325529
        0.000000000000000
        0.000000000000000
        0.000000000000000
        0.000000000000000
        0.000000000000000
        0.000000000000000
       -0.000906406155204
       -0.001094000163874
        0.000000000000000
        0.000000000000000
        0.000000000000000
        0.000000000000000
        0.000000000000000
       -0.000600714568740
       -0.002513465697037
       -0.005848839183361
       -0.007538375264098
       -0.005262110285938
       -0.002072394248621
        0.000000000000000
        0.000000000000000
        0.000000000000000
       -0.001668345893169
       -0.008421103037737
       -0.025031845657055
       -0.034073901213332
       -0.021110796731229
       -0.007957128944231
       -0.001805293315391
        0.000000000000000
       -0.000126935723130
       -0.001953735313244
       -0.015309625883163
       -0.068150502760253
       -0.101466013231430
       -0.054466926389135
       -0.017462174939500
       -0.003879435060778
        0.000000000000000
        0.000091916892101
        0.000009020979221
       -0.005209549142438
       -0.039613142366726
       -0.108588553733915
       -0.073689802030326
       -0.021692822858286
       -0.004460313257896
       -0.000606729049760
        0.000000000000000
        0.001670283593864
        0.005282190149557
        0.006593439693447
       -0.011836933232448
       -0.027258853321971
       -0.010642160083634
       -0.002591789366218
       -0.000413047537542
        0.000000000000000
        0.001286310076501
        0.004611300347707
        0.008930811116466
        0.007171527580419
       -0.000919941169141
       -0.001830156541070
       -0.000722358072970
        0.000000000000000
        0.000000000000000
        0.000000000000000
        0.001553410893524
        0.003052958376036
        0.003087082247107
        0.001303314032377
        0.000122761603140
       -0.000055196744234
        0.000000000000000
        0.000000000000000
        0.000000000000000
        0.000000000000000
        0.000000000000000
        0.000579187836998
        0.000366422767845
        0.000000000000000
        0.000000000000000
        0.000000000000000
        0.000000000000000
        0.000000000000000
        0.000000000000000
        0.000000000000000
        0.000000000000000
        0.000000000000000
        0.000000000000000
        0.000000000000000
        0.000000000000000
        0.000000000000000
        0.000000000000000
       -0.001443394852319
       -0.003314676377546
       -0.004000656661167
       -0.002502271079131
        0.000000000000000
        0.000000000000000
        0.000000000000000
        0.000000000000000
       -0.001087233986923
       -0.004931751960703
       -0.012069989601159
       -0.015172929097939
       -0.009833362383003
       -0.003568690985533
        0.000000000000000
        0.000000000000000
        0.000000000000000
       -0.001751638691272
       -0.008800436396059
       -0.026159816848901
       -0.035895222234329
       -0.022370539856114
       -0.008438668518936
       -0.001915622169341
        0.000000000000000
        0.000000000000000
       -0.001107037650563
       -0.006444802992235
       -0.022729218661931
       -0.040933530038442
       -0.028789275394254
       -0.010740410830186
       -0.002613792665304
        0.000000000000000
        0.000000000000000
       -0.000094514557694
       -0.001415424409438
       -0.006835544659750
       -0.015623272201401
       -0.015037098235825
       -0.006577713976264
       -0.001764811336277
        0.000000000000000
        0.000000000000000
        0.000000000000000
        0.000432004380550
       -0.000020730787147
       -0.002012285202197
       -0.003308161029948
       -0.001972603040808
       -0.000600405504845
        0.000000000000000
        0.000000000000000
        0.000000000000000
        0.000000000000000
        0.000492134200677
        0.000279826098904
       -0.000201773823236
       -0.000244244687417
        0.000000000000000
        0.000000000000000
        0.000000000000000
        0.000000000000000
        0.000000000000000
        0.000000000000000
        0.000000000000000
        0.000000000000000
        0.000000000000000
        0.000000000000000
        0.000000000000000
        0.000000000000000
        0.000000000000000
        0.000000000000000
        0.000000000000000
        0.000000000000000
        0.000000000000000
        0.000000000000000
        0.000000000000000
        0.000000000000000
        0.000000000000000
        0.000000000000000
        0.000000000000000
       -0.001039774268778
       -0.001181830218918
        0.000000000000000
        0.000000000000000
        0.000000000000000
        0.000000000000000
        0.000000000000000
        0.000000000000000
       -0.001484716613230
       -0.003412727112214
       -0.004132633143995
       -0.002594491803452
        0.000000000000000
        0.000000000000000
        0.000000000000000
        0.000000000000000
       -0.000646358631895
       -0.002694809230429
       -0.006300748837833
       -0.008178227168019
       -0.005739500280326
       -0.002274943827768
        0.000000000000000
        0.000000000000000
        0.000000000000000
       -0.000545331795394
       -0.002376547195192
       -0.006145849010273
       -0.008939199621494
       -0.006953382221647
       -0.003128015529348
       -0.000813380587373
        0.000000000000000
        0.000000000000000
        0.000000000000000
       -0.000981605173631
       -0.002921831552746
       -0.004921004113495
       -0.004352574675343
       -0.002146848531532
       -0.000626456248496
        0.000000000000000
        0.000000000000000
        0.000000000000000
        0.000000000000000
       -0.000662057243150
       -0.001371929667965
       -0.001428930702340
       -0.000761408361002
        0.000000000000000
        0.000000000000000
        0.000000000000000
        0.000000000000000
        0.000000000000000
        0.000000000000000
       -0.000176882219425
       -0.000233040647833
        0.000000000000000
        0.000000000000000
        0.000000000000000
        0.000000000000000
        0.000000000000000
        0.000000000000000
        0.000000000000000
        0.000000000000000
        0.000000000000000
        0.000000000000000
        0.000000000000000
        0.000000000000000
        0.000000000000000
        0.000000000000000
        0.000000000000000
        0.000000000000000
        0.000000000000000
        0.000000000000000
        0.000000000000000
        0.000000000000000
        0.000000000000000
        0.000000000000000
        0.000000000000000
        0.000000000000000
        0.000000000000000
        0.000000000000000
        0.000000000000000
        0.000000000000000
        0.000000000000000
        0.000000000000000
        0.000000000000000
        0.000000000000000
        0.000000000000000
        0.000000000000000
        0.000000000000000
        0.000000000000000
        0.000000000000000
        0.000000000000000
        0.000000000000000
        0.000000000000000
        0.000000000000000
        0.000000000000000
       -0.000996840251650
       -0.001208823682042
        0.000000000000000
        0.000000000000000
        0.000000000000000
        0.000000000000000
        0.000000000000000
        0.000000000000000
        0.000000000000000
       -0.001012594669683
       -0.001540468747598
       -0.001054118439632
        0.000000000000000
        0.000000000000000
        0.000000000000000
        0.000000000000000
        0.000000000000000
        0.000000000000000
        0.000000000000000
       -0.000857889433250
       -0.000765407869092
        0.000000000000000
        0.000000000000000
        0.000000000000000
        0.000000000000000
        0.000000000000000
        0.000000000000000
        0.000000000000000
        0.000000000000000
        0.000000000000000
        0.000000000000000
        0.000000000000000
        0.000000000000000
        0.000000000000000
        0.000000000000000
        0.000000000000000
        0.000000000000000
        0.000000000000000
        0.000000000000000
        0.000000000000000
        0.000000000000000
        0.000000000000000
        0.000000000000000
        0.000000000000000
        0.000000000000000
        0.000000000000000
        0.000000000000000
        0.000000000000000
        0.000000000000000
        0.000000000000000
        0.000000000000000
END_DATAGRID_3D
END_BLOCK_DATAGRID_3D
