ATOMS
         C    7.558905    7.558905    7.558905
         H    8.755769    8.755769    8.755769
         H    6.362040    6.362040    8.755769
         H    8.755769    6.362040    6.362040
         H    6.362040    8.755769    6.362040
BEGIN_BLOCK_DATAGRID_3D
units: coords = b, function = sqrt(b^-3)
BEGIN_DATAGRID_3D_function
      9      9      9
0.0 0.0 0.0
   15.117809    0.000000    0.000000
    0.000000   15.117809    0.000000
    0.000000    0.000000   15.117809
        0.000000000000000
        0.000000000000000
        0.000000000000000
        0.000000000000000
        0.000000000000000
        0.000000000000000
        0.000000000000000
        0.000000000000000
        0.000000000000000
        0.000000000000000
        0.000000000000000
        0.000000000000000
        0.000000000000000
        0.000000000000000
        0.000000000000000
        0.000000000000000
        0.000000000000000
        0.000000000000000
        0.000000000000000
        0.000000000000000
        0.000000000000000
        0.000000000000000
        0.000000000000000
        0.000000000000000
        0.000000000000000
        0.000000000000000
        0.000000000000000
        0.000000000000000
        0.000000000000000
        0.000000000000000
        0.000000000000000
        0.000405168988835
        0.000183082477226
        0.000000000000000
        0.000000000000000
        0.000000000000000
        0.000000000000000
        0.000000000000000
        0.000000000000000
        0.000993412603481
        0.001089063586133
        0.000468112730378
        0.000000000000000
        0.000000000000000
        0.000000000000000
        0.000000000000000
        0.000000000000000
        0.000000000000000
        0.001062860772692
        0.001056356345024
        0.000000000000000
        0.000000000000000
        0.000000000000000
        0.000000000000000
        0.000000000000000
        0.000000000000000
        0.000000000000000
        0.000000000000000
        0.000000000000000
        0.000000000000000
        0.000000000000000
        0.000000000000000
        0.000000000000000
        0.000000000000000
        0.000000000000000
        0.000000000000000
        0.000000000000000
        0.000000000000000
        0.000000000000000
        0.000000000000000
        0.000000000000000
        0.000000000000000
        0.000000000000000
        0.000000000000000
        0.000000000000000
        0.000000000000000
        0.000000000000000
        0.000000000000000
        0.000000000000000
        0.000000000000000
        0.000000000000000
        0.000000000000000
        0.000000000000000
        0.000000000000000
        0.000000000000000
        0.000000000000000
        0.000000000000000
        0.000000000000000
        0.000000000000000
        0.000000000000000
        0.000000000000000
        0.000000000000000
        0.000000000000000
        0.000000000000000
       -0.000322057067476
       -0.000398738204164
        0.000000000000000
        0.000000000000000
        0.000000000000000
        0.000000000000000
        0.000000000000000
        0.000000000000000
        0.000285073483308
       -0.000245562017972
       -0.000809368646233
       -0.000580606773673
        0.000000000000000
        0.000000000000000
        0.000000000000000
        0.000000000000000
        0.001499269724294
        0.002608481182017
        0.001974418227239
        0.000062323553488
       -0.000579140823634
       -0.000272514833434
        0.000000000000000
        0.000000000000000
        0.001077851079192
        0.003572322093904
        0.006628127808918
        0.006314938999339
        0.002626384109536
        0.000317796511953
       -0.000117929461934
        0.000000000000000
        0.000000000000000
        0.001172103188385
        0.004000220768214
        0.007465394745789
        0.007280093691215
        0.003512565059085
        0.000802547190568
        0.000000000000000
        0.000000000000000
        0.000000000000000
        0.000000000000000
        0.002168344254973
        0.004230448590813
        0.004135680623829
        0.002016743431554
        0.000000000000000
        0.000000000000000
        0.000000000000000
        0.000000000000000
        0.000000000000000
        0.000000000000000
        0.001298326559115
        0.001281978684734
        0.000000000000000
        0.000000000000000
        0.000000000000000
        0.000000000000000
        0.000000000000000
        0.000000000000000
        0.000000000000000
        0.000000000000000
        0.000000000000000
        0.000000000000000
        0.000000000000000
        0.000000000000000
        0.000000000000000
        0.000000000000000
        0.000000000000000
        0.000000000000000
        0.000000000000000
        0.000000000000000
        0.000000000000000
        0.000000000000000
        0.000000000000000
        0.000000000000000
        0.000000000000000
        0.000000000000000
        0.000000000000000
       -0.000791115017334
       -0.001784755776160
       -0.001952740952528
       -0.001062687684104
        0.000000000000000
        0.000000000000000
        0.000000000000000
        0.000000000000000
        0.000466387790393
       -0.000518595087393
       -0.003748191100006
       -0.005524580748614
       -0.003181920904337
       -0.000948342295785
        0.000000000000000
        0.000000000000000
        0.001438730924680
        0.004780551990731
        0.007822690721514
        0.002586430185223
       -0.006573765636753
       -0.004475891943509
       -0.001451315188822
        0.000000000000000
        0.000000000000000
        0.003485737873354
        0.013088150569732
        0.029571722750842
        0.028895846047115
        0.006808058819690
       -0.000948827453455
       -0.000856313908211
        0.000000000000000
        0.000000000000000
        0.003935902679986
        0.015340964621600
        0.035670989848459
        0.033793351385310
        0.012805033805462
        0.002182312106384
       -0.000018378781840
        0.000000000000000
        0.000000000000000
        0.002141225771904
        0.008060450583764
        0.016389653426704
        0.015887514216284
        0.007481459184508
        0.001750168647728
        0.000000000000000
        0.000000000000000
        0.000000000000000
        0.000000000000000
        0.002255571160222
        0.004437328443692
        0.004414179741302
        0.002211467160175
        0.000000000000000
        0.000000000000000
        0.000000000000000
        0.000000000000000
        0.000000000000000
        0.000000000000000
        0.000000000000000
        0.000000000000000
        0.000000000000000
        0.000000000000000
        0.000000000000000
        0.000000000000000
        0.000000000000000
        0.000000000000000
        0.000000000000000
        0.000000000000000
       -0.000934881980372
       -0.000871991998231
        0.000000000000000
        0.000000000000000
        0.000000000000000
        0.000000000000000
        0.000000000000000
       -0.000863488378789
       -0.002958949050758
       -0.005484605563860
       -0.005206168141809
       -0.002693155146692
       -0.000804673395961
        0.000000000000000
        0.000000000000000
        0.000152161322239
       -0.000834455962220
       -0.006859093489950
       -0.018633886127934
       -0.019717438207087
       -0.008897170854336
       -0.002421957205584
        0.000000000000000
        0.000000000000000
        0.002295296695264
        0.006996796752368
        0.007112086904543
       -0.022639989058928
       -0.043946541092097
       -0.016599873683231
       -0.003956527851730
       -0.000621737532662
        0.000918030756297
        0.006208535566173
        0.028378016930487
        0.082800201662723
        0.076643296335473
       -0.002813869956724
       -0.009378983500303
       -0.003063424279300
       -0.000554089833872
        0.001003509699708
        0.007169026439664
        0.034931619227564
        0.111325495966093
        0.102626320764927
        0.026688845155579
        0.001605640787148
       -0.000734319269198
        0.000000000000000
        0.000000000000000
        0.004111529006180
        0.016140943356063
        0.038049183751420
        0.037632919558118
        0.015461531029465
        0.003198282156408
        0.000214410947811
        0.000000000000000
        0.000000000000000
        0.001268391059377
        0.004382726947287
        0.008418666729743
        0.008629716850732
        0.004519926476824
        0.001230060648839
        0.000000000000000
        0.000000000000000
        0.000000000000000
        0.000000000000000
        0.000000000000000
        0.001253764165277
        0.001298822902797
        0.000000000000000
        0.000000000000000
        0.000000000000000
        0.000000000000000
        0.000000000000000
        0.000000000000000
        0.000000000000000
       -0.000969944819730
       -0.001570232043292
       -0.001137309467834
        0.000000000000000
        0.000000000000000
        0.000000000000000
        0.000000000000000
       -0.000405499969770
       -0.002012324514636
       -0.005761994501737
       -0.009104995974941
       -0.007581332136318
       -0.003596520519668
       -0.000978532791641
        0.000000000000000
        0.000000000000000
       -0.000559714976997
       -0.004751737808615
       -0.020242371039103
       -0.041662565858365
       -0.032210671627442
       -0.012750963028843
       -0.003231437181644
        0.000000000000000
        0.000294724302293
        0.001277437046616
       -0.000215760546302
       -0.028924855357644
       -0.110505723762937
       -0.086400918701255
       -0.027177397634280
       -0.005812116734056
       -0.000819461062877
        0.000939470308444
        0.005447521857358
        0.024926725807643
        0.066115608092360
        0.000000000000001
       -0.066115608092363
       -0.024926725807644
       -0.005447521857358
       -0.000939470308444
        0.000966046578014
        0.006705879333833
        0.031598431905777
        0.097924301006118
        0.110505723762934
        0.017401473052776
       -0.004205273725197
       -0.002171199646393
       -0.000441309817430
        0.000000000000000
        0.003915488664651
        0.015223609035934
        0.036631705898939
        0.041662565858364
        0.015821336767605
        0.002279091801523
       -0.000124336506010
        0.000000000000000
        0.000000000000000
        0.001233567191308
        0.004280572002675
        0.008475094736095
        0.009104995974941
        0.004868231901960
        0.001328273031628
        0.000150465570103
        0.000000000000000
        0.000000000000000
        0.000000000000000
        0.000000000000000
        0.001283894982971
        0.001570232043292
        0.000823359304593
        0.000000000000000
        0.000000000000000
        0.000000000000000
        0.000000000000000
        0.000000000000000
        0.000000000000000
       -0.000924432049047
       -0.001172372307192
        0.000000000000000
        0.000000000000000
        0.000000000000000
        0.000000000000000
        0.000000000000000
       -0.000492369750741
       -0.002239421261191
       -0.005647435483276
       -0.007858721074196
       -0.005866488755292
       -0.002455313868875
        0.000000000000000
        0.000000000000000
        0.000000000000000
       -0.001160367043123
       -0.006768292107670
       -0.022235478417649
       -0.033819156538612
       -0.022882341670388
       -0.009204730415500
       -0.002200051340641
        0.000000000000000
        0.000071291353425
       -0.000675312094104
       -0.009831176468210
       -0.053201683615655
       -0.092685784999970
       -0.055846896597704
       -0.019399950477238
       -0.004545942850799
        0.000000000000000
        0.000342740124010
        0.001774780814276
        0.003004654428988
       -0.013800756014248
       -0.076643296335473
       -0.066185575691753
       -0.022003687859173
       -0.004919892101149
       -0.000706681046435
        0.000000000000000
        0.002984965424733
        0.010797512937722
        0.022045964537579
        0.012699453293968
       -0.014177271258344
       -0.008500569076124
       -0.002537186493830
       -0.000453063520471
        0.000000000000000
        0.001833479070591
        0.006840904221311
        0.014279904130871
        0.014820123108427
        0.003903732873315
       -0.000475480394059
       -0.000529204757472
        0.000000000000000
        0.000000000000000
        0.000000000000000
        0.002088741598825
        0.004305511329226
        0.004713609787323
        0.002434936895341
        0.000549849460595
        0.000028652087326
        0.000000000000000
        0.000000000000000
        0.000000000000000
        0.000000000000000
        0.000000000000000
        0.000808431384767
        0.000542659882001
        0.000000000000000
        0.000000000000000
        0.000000000000000
        0.000000000000000
        0.000000000000000
        0.000000000000000
        0.000000000000000
        0.000000000000000
        0.000000000000000
        0.000000000000000
        0.000000000000000
        0.000000000000000
        0.000000000000000
        0.000000000000000
       -0.001226541614551
       -0.002979835455354
       -0.003824089258143
       -0.002527687230330
        0.000000000000000
        0.000000000000000
        0.000000000000000
        0.000000000000000
       -0.000771579187188
       -0.003852033516991
       -0.010140882213392
       -0.013754509737451
       -0.009520591290327
       -0.003662259904032
        0.000000000000000
        0.000000000000000
        0.000000000000000
       -0.000984740716930
       -0.005968313373206
       -0.019857284514688
       -0.029979588365804
       -0.020225844446384
       -0.008188760365475
       -0.001967261610991
        0.000000000000000
        0.000000000000000
       -0.000129964185700
       -0.002616279342413
       -0.013182387891006
       -0.028895846047115
       -0.023197393679527
       -0.009523043773865
       -0.002499459779443
        0.000000000000000
        0.000000000000000
        0.000546909468150
        0.001225896268360
       -0.000401880080592
       -0.006400193204729
       -0.009239939697019
       -0.004896759304885
       -0.001499846774235
        0.000000000000000
        0.000000000000000
        0.000000000000000
        0.001445703465911
        0.002557727193212
        0.001615186621173
       -0.000724190464699
       -0.001026496162436
       -0.000421304288930
        0.000000000000000
        0.000000000000000
        0.000000000000000
        0.000000000000000
        0.001107335087490
        0.001194665293001
        0.000495247964190
        0.000033658138432
        0.000000000000000
        0.000000000000000
        0.000000000000000
        0.000000000000000
        0.000000000000000
        0.000000000000000
        0.000000000000000
        0.000000000000000
        0.000000000000000
        0.000000000000000
        0.000000000000000
        0.000000000000000
        0.000000000000000
        0.000000000000000
        0.000000000000000
        0.000000000000000
        0.000000000000000
        0.000000000000000
        0.000000000000000
        0.000000000000000
        0.000000000000000
        0.000000000000000
        0.000000000000000
       -0.000898304942539
       -0.001061975693935
        0.000000000000000
        0.000000000000000
        0.000000000000000
        0.000000000000000
        0.000000000000000
        0.000000000000000
       -0.001139314709301
       -0.002772955602475
       -0.003545590140670
       -0.002332963501710
        0.000000000000000
        0.000000000000000
        0.000000000000000
        0.000000000000000
       -0.000396081879749
       -0.001856915082117
       -0.004694163499322
       -0.006509097914679
       -0.004859127337553
       -0.002027800410604
        0.000000000000000
        0.000000000000000
        0.000000000000000
       -0.000249783857654
       -0.001304074605864
       -0.003915027574560
       -0.006314938999339
       -0.005339484343894
       -0.002586043999993
       -0.000710137759604
        0.000000000000000
        0.000000000000000
        0.000000000000000
       -0.000274016504258
       -0.001261918903549
       -0.002745414003776
       -0.002833554799955
       -0.001564164862463
       -0.000503506475202
        0.000000000000000
        0.000000000000000
        0.000000000000000
        0.000000000000000
        0.000031146586848
       -0.000344528465187
       -0.000648124342105
       -0.000448422771999
        0.000000000000000
        0.000000000000000
        0.000000000000000
        0.000000000000000
        0.000000000000000
        0.000000000000000
        0.000102054076677
       -0.000001283412413
        0.000000000000000
        0.000000000000000
        0.000000000000000
        0.000000000000000
        0.000000000000000
        0.000000000000000
        0.000000000000000
        0.000000000000000
        0.000000000000000
        0.000000000000000
        0.000000000000000
        0.000000000000000
        0.000000000000000
        0.000000000000000
        0.000000000000000
        0.000000000000000
        0.000000000000000
        0.000000000000000
        0.000000000000000
        0.000000000000000
        0.000000000000000
        0.000000000000000
        0.000000000000000
        0.000000000000000
        0.000000000000000
        0.000000000000000
        0.000000000000000
        0.000000000000000
        0.000000000000000
        0.000000000000000
        0.000000000000000
        0.000000000000000
        0.000000000000000
        0.000000000000000
        0.000000000000000
        0.000000000000000
        0.000000000000000
        0.000000000000000
        0.000000000000000
        0.000000000000000
        0.000000000000000
        0.000000000000000
       -0.000733528656463
       -0.000929905749419
        0.000000000000000
        0.000000000000000
        0.000000000000000
        0.000000000000000
        0.000000000000000
        0.000000000000000
        0.000000000000000
       -0.000679462440240
       -0.001089063586133
       -0.000782062893619
        0.000000000000000
        0.000000000000000
        0.000000000000000
        0.000000000000000
        0.000000000000000
        0.000000000000000
        0.000000000000000
       -0.000531619584441
       -0.000512414593456
        0.000000000000000
        0.000000000000000
        0.000000000000000
        0.000000000000000
        0.000000000000000
        0.000000000000000
        0.000000000000000
        0.000000000000000
        0.000000000000000
        0.000000000000000
        0.000000000000000
        0.000000000000000
        0.000000000000000
        0.000000000000000
        0.000000000000000
        0.000000000000000
        0.000000000000000
        0.000000000000000
        0.000000000000000
        0.000000000000000
        0.000000000000000
        0.000000000000000
        0.000000000000000
        0.000000000000000
        0.000000000000000
        0.000000000000000
        0.000000000000000
        0.000000000000000
        0.000000000000000
        0.000000000000000
END_DATAGRID_3D
END_BLOCK_DATAGRID_3D
