ATOMS
         C    7.558905    7.558905    7.558905
         H    8.755769    8.755769    8.755769
         H    6.362040    6.362040    8.755769
         H    8.755769    6.362040    6.362040
         H    6.362040    8.755769    6.362040
BEGIN_BLOCK_DATAGRID_3D
units: coords = b, function = sqrt(b^-3)
BEGIN_DATAGRID_3D_function
      9      9      9
0.0 0.0 0.0
   15.117809    0.000000    0.000000
    0.000000   15.117809    0.000000
    0.000000    0.000000   15.117809
        0.000000000000000
        0.000000000000000
        0.000000000000000
        0.000000000000000
        0.000000000000000
        0.000000000000000
        0.000000000000000
        0.000000000000000
        0.000000000000000
        0.000000000000000
        0.000000000000000
        0.000000000000000
        0.000000000000000
        0.000000000000000
        0.000000000000000
        0.000000000000000
        0.000000000000000
        0.000000000000000
        0.000000000000000
        0.000000000000000
        0.000000000000000
        0.000000000000000
        0.000000000000000
        0.000000000000000
        0.000000000000000
        0.000000000000000
        0.000000000000000
        0.000000000000000
        0.000000000000000
        0.000000000000000
        0.000000000000000
       -0.000276644580082
       -0.000073196275142
        0.000000000000000
        0.000000000000000
        0.000000000000000
        0.000000000000000
        0.000000000000000
        0.000000000000000
       -0.000393060840427
       -0.000280149400807
        0.000017099829740
        0.000000000000000
        0.000000000000000
        0.000000000000000
        0.000000000000000
        0.000000000000000
        0.000000000000000
       -0.000247308660795
       -0.000099316430605
        0.000000000000000
        0.000000000000000
        0.000000000000000
        0.000000000000000
        0.000000000000000
        0.000000000000000
        0.000000000000000
        0.000000000000000
        0.000000000000000
        0.000000000000000
        0.000000000000000
        0.000000000000000
        0.000000000000000
        0.000000000000000
        0.000000000000000
        0.000000000000000
        0.000000000000000
        0.000000000000000
        0.000000000000000
        0.000000000000000
        0.000000000000000
        0.000000000000000
        0.000000000000000
        0.000000000000000
        0.000000000000000
        0.000000000000000
        0.000000000000000
        0.000000000000000
        0.000000000000000
        0.000000000000000
        0.000000000000000
        0.000000000000000
        0.000000000000000
        0.000000000000000
        0.000000000000000
        0.000000000000000
        0.000000000000000
        0.000000000000000
        0.000000000000000
        0.000000000000000
        0.000000000000000
        0.000000000000000
        0.000000000000000
        0.000000000000000
       -0.000461249251827
       -0.000254794117078
        0.000000000000000
        0.000000000000000
        0.000000000000000
        0.000000000000000
        0.000000000000000
        0.000000000000000
       -0.001383377858435
       -0.001437090161428
       -0.000501307677638
        0.000067801525716
        0.000000000000000
        0.000000000000000
        0.000000000000000
        0.000000000000000
       -0.001623673175173
       -0.002896864223060
       -0.002251103613880
       -0.000235658757267
        0.000573114246060
        0.000334262215318
        0.000000000000000
        0.000000000000000
       -0.000738297854147
       -0.002192667918107
       -0.003172095279138
       -0.001624447276839
        0.000791475816942
        0.001191978508989
        0.000491368777350
        0.000000000000000
        0.000000000000000
       -0.000565671236629
       -0.001453148716765
       -0.001700762401093
       -0.000129515848317
        0.001322293685038
        0.001031556573648
        0.000000000000000
        0.000000000000000
        0.000000000000000
        0.000000000000000
       -0.000476229196689
       -0.000378726793067
        0.000436400752310
        0.000791261256910
        0.000000000000000
        0.000000000000000
        0.000000000000000
        0.000000000000000
        0.000000000000000
        0.000000000000000
        0.000023385095767
        0.000214320175030
        0.000000000000000
        0.000000000000000
        0.000000000000000
        0.000000000000000
        0.000000000000000
        0.000000000000000
        0.000000000000000
        0.000000000000000
        0.000000000000000
        0.000000000000000
        0.000000000000000
        0.000000000000000
        0.000000000000000
        0.000000000000000
        0.000000000000000
        0.000000000000000
        0.000000000000000
        0.000000000000000
        0.000000000000000
        0.000000000000000
        0.000000000000000
        0.000000000000000
        0.000000000000000
        0.000000000000000
        0.000000000000000
       -0.001765130051601
       -0.001983082422585
       -0.000906891722881
       -0.000103205174997
        0.000000000000000
        0.000000000000000
        0.000000000000000
        0.000000000000000
       -0.003280651684601
       -0.006673461819007
       -0.006427358664892
       -0.001779761275357
        0.000484986343899
        0.000430419261426
        0.000000000000000
        0.000000000000000
       -0.002206427363211
       -0.007722188690823
       -0.014278867697715
       -0.011859585333917
        0.000437753459365
        0.003114235595312
        0.001433150534182
        0.000000000000000
        0.000000000000000
       -0.003026138642103
       -0.009759352223820
       -0.017200105428971
       -0.007433132517689
        0.007841814381274
        0.006636647415274
        0.002349748798863
        0.000000000000000
        0.000000000000000
       -0.002072282817885
       -0.005909153761019
       -0.007922688252756
        0.002501294286221
        0.008972616768173
        0.005931069944823
        0.001841057694425
        0.000000000000000
        0.000000000000000
       -0.000737275165271
       -0.001739933423128
       -0.001015156890351
        0.003304653856346
        0.004882343073007
        0.002710467385079
        0.000000000000000
        0.000000000000000
        0.000000000000000
        0.000000000000000
       -0.000203650728848
        0.000267759439178
        0.001306692579345
        0.001399760382816
        0.000000000000000
        0.000000000000000
        0.000000000000000
        0.000000000000000
        0.000000000000000
        0.000000000000000
        0.000000000000000
        0.000000000000000
        0.000000000000000
        0.000000000000000
        0.000000000000000
        0.000000000000000
        0.000000000000000
        0.000000000000000
        0.000000000000000
        0.000000000000000
       -0.000751995688316
       -0.000447458771646
        0.000000000000000
        0.000000000000000
        0.000000000000000
        0.000000000000000
        0.000000000000000
       -0.002461805237758
       -0.004871777261430
       -0.004897014334382
       -0.002104530482023
       -0.000176781895490
        0.000145491662356
        0.000000000000000
        0.000000000000000
       -0.002662807232629
       -0.009713978790239
       -0.019486880345103
       -0.019386986237563
       -0.004224650782075
        0.001545892391681
        0.001088838437874
        0.000000000000000
        0.000000000000000
       -0.005911617942154
       -0.022229028131495
       -0.050027638726924
       -0.046116270466020
        0.006698303613466
        0.010324327856388
        0.003727262171181
        0.000720423030283
       -0.001118696093009
       -0.007211143596734
       -0.028690869542874
       -0.066983394882254
       -0.019715628928987
        0.046407807574476
        0.023803581142863
        0.006402098970040
        0.001025076369932
       -0.000818629641178
       -0.004553641425765
       -0.015039963927033
       -0.024030784540487
        0.025540683158243
        0.041332727810849
        0.020016147494531
        0.005510073995451
        0.000000000000000
        0.000000000000000
       -0.001523461846079
       -0.003409271676217
       -0.000490985288570
        0.014499697837552
        0.017273999708139
        0.009105910996635
        0.002568510624870
        0.000000000000000
        0.000000000000000
       -0.000264777833709
       -0.000257841512715
        0.001278151227438
        0.004087969707688
        0.004470233314727
        0.002367508629998
        0.000000000000000
        0.000000000000000
        0.000000000000000
        0.000000000000000
        0.000000000000000
        0.000349252160751
        0.000658375965240
        0.000000000000000
        0.000000000000000
        0.000000000000000
        0.000000000000000
        0.000000000000000
        0.000000000000000
        0.000000000000000
       -0.001089515041371
       -0.001223471075592
       -0.000552385390331
        0.000000000000000
        0.000000000000000
        0.000000000000000
        0.000000000000000
       -0.001264481246591
       -0.004173688055003
       -0.007567195545371
       -0.007094301295348
       -0.002829467969159
       -0.000196532063905
        0.000186090279795
        0.000000000000000
        0.000000000000000
       -0.004461166517842
       -0.016087626973280
       -0.034870466656161
       -0.032462045645050
       -0.005999149273201
        0.002450121414243
        0.001507230487125
        0.000000000000000
       -0.001339799185718
       -0.008960333142465
       -0.038833829866419
       -0.106615193144069
       -0.086102278506484
        0.016757296386640
        0.017490018392034
        0.005427065904442
        0.000930942258096
       -0.001720153326098
       -0.009974315055734
       -0.045640388973844
       -0.121056495500598
       -0.000000000000000
        0.121056495500598
        0.045640388973844
        0.009974315055734
        0.001720153326098
       -0.000968649738867
       -0.005656976315532
       -0.018627279905391
       -0.019721557325197
        0.086102278506487
        0.109579454082628
        0.039971091379776
        0.009190243553555
        0.001377506666489
        0.000000000000000
       -0.001683195063965
       -0.003086181885014
        0.004861887759844
        0.032462045645051
        0.036007728169519
        0.016723687444051
        0.004637131094682
        0.000000000000000
        0.000000000000000
       -0.000251695020567
        0.000020567487065
        0.002599557558068
        0.007094301295349
        0.007797105956462
        0.004349652631843
        0.001330085987362
        0.000000000000000
        0.000000000000000
        0.000000000000000
        0.000000000000000
        0.000514677909560
        0.001223471075592
        0.001127222522142
        0.000000000000000
        0.000000000000000
        0.000000000000000
        0.000000000000000
        0.000000000000000
        0.000000000000000
       -0.000952253373277
       -0.000889904743385
        0.000000000000000
        0.000000000000000
        0.000000000000000
        0.000000000000000
        0.000000000000000
       -0.001156103298111
       -0.003666512851279
       -0.006352226057854
       -0.005499649180148
       -0.002004701875057
       -0.000124091905899
        0.000000000000000
        0.000000000000000
        0.000000000000000
       -0.003880062907155
       -0.013751885067510
       -0.028463626244475
       -0.021482629691799
       -0.003686628195066
        0.001891788300565
        0.001067161408044
        0.000000000000000
       -0.001149311857157
       -0.007336233357770
       -0.030918497677312
       -0.082392875942963
       -0.043741626291409
        0.012055142694384
        0.012564915178680
        0.004157991473726
        0.000000000000000
       -0.001189752831577
       -0.007406165861263
       -0.028770240228936
       -0.059353355587013
        0.019715628928988
        0.079928942894792
        0.033657528628947
        0.008215210487958
        0.001283372554654
        0.000000000000000
       -0.003756447527023
       -0.010352034541716
       -0.003360231778308
        0.064317213599189
        0.099725356869986
        0.035634133747958
        0.008162612612355
        0.001247518468051
        0.000000000000000
       -0.000972864800284
       -0.001283720506961
        0.005899508832030
        0.026369918091811
        0.033179262315121
        0.015615264352046
        0.004314686315361
        0.000000000000000
        0.000000000000000
        0.000000000000000
        0.000218388513659
        0.002406245821759
        0.006308693806843
        0.007178605312438
        0.004101136259484
        0.001275389469464
        0.000000000000000
        0.000000000000000
        0.000000000000000
        0.000000000000000
        0.000000000000000
        0.000983524466462
        0.001050459984172
        0.000000000000000
        0.000000000000000
        0.000000000000000
        0.000000000000000
        0.000000000000000
        0.000000000000000
        0.000000000000000
        0.000000000000000
        0.000000000000000
        0.000000000000000
        0.000000000000000
        0.000000000000000
        0.000000000000000
        0.000000000000000
       -0.001680483958254
       -0.002936403023888
       -0.002387137696324
       -0.000820767092056
        0.000000000000000
        0.000000000000000
        0.000000000000000
        0.000000000000000
       -0.001770523226122
       -0.005965602930660
       -0.010426231400472
       -0.007210146894145
       -0.001148728670667
        0.000790537494770
        0.000000000000000
        0.000000000000000
        0.000000000000000
       -0.003331241935350
       -0.011252002982708
       -0.021031923280290
       -0.009484226140468
        0.004614754744900
        0.005066629352377
        0.001794614338489
        0.000000000000000
        0.000000000000000
       -0.003118222939704
       -0.009414456634474
       -0.012808473467346
        0.007433132517689
        0.022166764515044
        0.012537161443020
        0.003794612782944
        0.000000000000000
        0.000000000000000
       -0.001429244669703
       -0.003275510606377
        0.000691496184642
        0.018842517188165
        0.028516858073681
        0.014046921148416
        0.003970374219053
        0.000000000000000
        0.000000000000000
        0.000000000000000
       -0.000220353195247
        0.002939847416667
        0.010332851702691
        0.013221149566180
        0.007220550009888
        0.002077379129967
        0.000000000000000
        0.000000000000000
        0.000000000000000
        0.000000000000000
        0.001186136760842
        0.003063527539564
        0.003575535307591
        0.001987339862098
        0.000000000000000
        0.000000000000000
        0.000000000000000
        0.000000000000000
        0.000000000000000
        0.000000000000000
        0.000000000000000
        0.000000000000000
        0.000000000000000
        0.000000000000000
        0.000000000000000
        0.000000000000000
        0.000000000000000
        0.000000000000000
        0.000000000000000
        0.000000000000000
        0.000000000000000
        0.000000000000000
        0.000000000000000
        0.000000000000000
        0.000000000000000
        0.000000000000000
        0.000000000000000
       -0.000755817518677
       -0.000617141714968
        0.000000000000000
        0.000000000000000
        0.000000000000000
        0.000000000000000
        0.000000000000000
        0.000000000000000
       -0.001407905490412
       -0.002289916791643
       -0.001516845869289
       -0.000212267966150
        0.000000000000000
        0.000000000000000
        0.000000000000000
        0.000000000000000
       -0.000855209895191
       -0.002471205647228
       -0.003373312429322
       -0.001282163624144
        0.001143237754632
        0.001211860150451
        0.000000000000000
        0.000000000000000
        0.000000000000000
       -0.000777878413010
       -0.001960452649830
       -0.001795542708165
        0.001624447276839
        0.004176162170362
        0.002961142058949
        0.001024807489807
        0.000000000000000
        0.000000000000000
        0.000000000000000
       -0.000619743548925
        0.000431332783390
        0.003662783086340
        0.005309733587683
        0.003351240117934
        0.001086618916502
        0.000000000000000
        0.000000000000000
        0.000000000000000
        0.000000000000000
        0.000804384567676
        0.002517535278407
        0.003169951262349
        0.001816333161385
        0.000000000000000
        0.000000000000000
        0.000000000000000
        0.000000000000000
        0.000000000000000
        0.000000000000000
        0.000864070791765
        0.000987226539988
        0.000000000000000
        0.000000000000000
        0.000000000000000
        0.000000000000000
        0.000000000000000
        0.000000000000000
        0.000000000000000
        0.000000000000000
        0.000000000000000
        0.000000000000000
        0.000000000000000
        0.000000000000000
        0.000000000000000
        0.000000000000000
        0.000000000000000
        0.000000000000000
        0.000000000000000
        0.000000000000000
        0.000000000000000
        0.000000000000000
        0.000000000000000
        0.000000000000000
        0.000000000000000
        0.000000000000000
        0.000000000000000
        0.000000000000000
        0.000000000000000
        0.000000000000000
        0.000000000000000
        0.000000000000000
        0.000000000000000
        0.000000000000000
        0.000000000000000
        0.000000000000000
        0.000000000000000
        0.000000000000000
        0.000000000000000
        0.000000000000000
        0.000000000000000
        0.000000000000000
        0.000000000000000
        0.000000000000000
       -0.000355692551731
       -0.000132212347540
        0.000000000000000
        0.000000000000000
        0.000000000000000
        0.000000000000000
        0.000000000000000
        0.000000000000000
        0.000000000000000
       -0.000181776291384
        0.000280149400807
        0.000557737302072
        0.000000000000000
        0.000000000000000
        0.000000000000000
        0.000000000000000
        0.000000000000000
        0.000000000000000
        0.000000000000000
        0.000508173358227
        0.000676197487668
        0.000000000000000
        0.000000000000000
        0.000000000000000
        0.000000000000000
        0.000000000000000
        0.000000000000000
        0.000000000000000
        0.000000000000000
        0.000000000000000
        0.000000000000000
        0.000000000000000
        0.000000000000000
        0.000000000000000
        0.000000000000000
        0.000000000000000
        0.000000000000000
        0.000000000000000
        0.000000000000000
        0.000000000000000
        0.000000000000000
        0.000000000000000
        0.000000000000000
        0.000000000000000
        0.000000000000000
        0.000000000000000
        0.000000000000000
        0.000000000000000
        0.000000000000000
        0.000000000000000
        0.000000000000000
END_DATAGRID_3D
END_BLOCK_DATAGRID_3D
