ATOMS
         C    7.558905    7.558905    7.558905
         H    8.755769    8.755769    8.755769
         H    6.362040    6.362040    8.755769
         H    8.755769    6.362040    6.362040
         H    6.362040    8.755769    6.362040
BEGIN_BLOCK_DATAGRID_3D
units: coords = b, function = sqrt(b^-3)
BEGIN_DATAGRID_3D_function
      9      9      9
0.0 0.0 0.0
   15.117809    0.000000    0.000000
    0.000000   15.117809    0.000000
    0.000000    0.000000   15.117809
        0.000000000000000
        0.000000000000000
        0.000000000000000
        0.000000000000000
        0.000000000000000
        0.000000000000000
        0.000000000000000
        0.000000000000000
        0.000000000000000
        0.000000000000000
        0.000000000000000
        0.000000000000000
        0.000000000000000
        0.000000000000000
        0.000000000000000
        0.000000000000000
        0.000000000000000
        0.000000000000000
        0.000000000000000
        0.000000000000000
        0.000000000000000
        0.000000000000000
        0.000000000000000
        0.000000000000000
        0.000000000000000
        0.000000000000000
        0.000000000000000
        0.000000000000000
        0.000000000000000
        0.000000000000000
        0.000000000000000
        0.001395694786473
        0.001312783773506
        0.000000000000000
        0.000000000000000
        0.000000000000000
        0.000000000000000
        0.000000000000000
        0.000000000000000
        0.001023373170040
        0.001808244851633
        0.001403294743691
        0.000000000000000
        0.000000000000000
        0.000000000000000
        0.000000000000000
        0.000000000000000
        0.000000000000000
        0.000755938839001
        0.001030973127258
        0.000000000000000
        0.000000000000000
        0.000000000000000
        0.000000000000000
        0.000000000000000
        0.000000000000000
        0.000000000000000
        0.000000000000000
        0.000000000000000
        0.000000000000000
        0.000000000000000
        0.000000000000000
        0.000000000000000
        0.000000000000000
        0.000000000000000
        0.000000000000000
        0.000000000000000
        0.000000000000000
        0.000000000000000
        0.000000000000000
        0.000000000000000
        0.000000000000000
        0.000000000000000
        0.000000000000000
        0.000000000000000
        0.000000000000000
        0.000000000000000
        0.000000000000000
        0.000000000000000
        0.000000000000000
        0.000000000000000
        0.000000000000000
        0.000000000000000
        0.000000000000000
        0.000000000000000
        0.000000000000000
        0.000000000000000
        0.000000000000000
        0.000000000000000
        0.000000000000000
        0.000000000000000
        0.000000000000000
        0.000000000000000
        0.000000000000000
        0.001227614910807
        0.001236325457576
        0.000000000000000
        0.000000000000000
        0.000000000000000
        0.000000000000000
        0.000000000000000
        0.000000000000000
        0.002263944937304
        0.004403742627468
        0.004348309881750
        0.002188070678154
        0.000000000000000
        0.000000000000000
        0.000000000000000
        0.000000000000000
        0.001495434245721
        0.005027010026316
        0.009116335935992
        0.008592227963545
        0.004376108064051
        0.001251565927779
        0.000000000000000
        0.000000000000000
        0.000341560135119
        0.001987259475769
        0.006170827254351
        0.010485114073526
        0.009195055641741
        0.004471763698679
        0.001252261699051
        0.000000000000000
        0.000000000000000
        0.000242080570132
        0.001304138962457
        0.003906544406158
        0.006249546960100
        0.005136170978917
        0.002326425780358
        0.000000000000000
        0.000000000000000
        0.000000000000000
        0.000000000000000
        0.000448155675259
        0.001331937144759
        0.002055280546980
        0.001557915088775
        0.000000000000000
        0.000000000000000
        0.000000000000000
        0.000000000000000
        0.000000000000000
        0.000000000000000
        0.000257321040335
        0.000366206923363
        0.000000000000000
        0.000000000000000
        0.000000000000000
        0.000000000000000
        0.000000000000000
        0.000000000000000
        0.000000000000000
        0.000000000000000
        0.000000000000000
        0.000000000000000
        0.000000000000000
        0.000000000000000
        0.000000000000000
        0.000000000000000
        0.000000000000000
        0.000000000000000
        0.000000000000000
        0.000000000000000
        0.000000000000000
        0.000000000000000
        0.000000000000000
        0.000000000000000
        0.000000000000000
        0.000000000000000
        0.000000000000000
        0.001838178663656
        0.003794800243810
        0.003895964065052
        0.001997347777185
        0.000000000000000
        0.000000000000000
        0.000000000000000
        0.000000000000000
        0.001762645012532
        0.007294412327093
        0.015237041607450
        0.015559987844840
        0.007607934886451
        0.002011154075286
        0.000000000000000
        0.000000000000000
        0.000426824889716
        0.003940381859581
        0.016824003681615
        0.038487029630827
        0.037525181452920
        0.015686608694798
        0.003956507246291
        0.000000000000000
        0.000000000000000
        0.000458905614225
        0.004580684633540
        0.021407018054350
        0.047977698927383
        0.038996757782115
        0.015575042549714
        0.003906902230485
        0.000000000000000
        0.000000000000000
        0.000168818948188
        0.002353395564763
        0.010786879061783
        0.021916746205638
        0.017425582065021
        0.007620525434116
        0.001931480431020
        0.000000000000000
        0.000000000000000
       -0.000030530141336
        0.000492213065133
        0.002480016414720
        0.004918685575804
        0.004266494966604
        0.001917651361912
        0.000000000000000
        0.000000000000000
        0.000000000000000
        0.000000000000000
       -0.000016723843235
        0.000229362129428
        0.000571007600900
        0.000520126657080
        0.000000000000000
        0.000000000000000
        0.000000000000000
        0.000000000000000
        0.000000000000000
        0.000000000000000
        0.000000000000000
        0.000000000000000
        0.000000000000000
        0.000000000000000
        0.000000000000000
        0.000000000000000
        0.000000000000000
        0.000000000000000
        0.000000000000000
        0.000000000000000
        0.000865538120315
        0.000895370720339
        0.000000000000000
        0.000000000000000
        0.000000000000000
        0.000000000000000
        0.000000000000000
        0.000560669831791
        0.002824399589027
        0.006165365206707
        0.006507884862393
        0.003539752722742
        0.001041031093015
        0.000000000000000
        0.000000000000000
       -0.000082173250567
        0.001718948522201
        0.011015533743040
        0.030091757801687
        0.032325225786248
        0.013937443520204
        0.003572497721680
        0.000000000000000
        0.000000000000000
       -0.000501211128347
        0.002245617123989
        0.026879100973954
        0.098574936223396
        0.105075654978633
        0.032701646958943
        0.006658769009245
        0.000925586960831
       -0.000307240381736
       -0.001235665757871
        0.000336147536670
        0.031837854393636
        0.127255972723200
        0.100968782748565
        0.031209213839439
        0.006457703630327
        0.000911515749724
       -0.000291705189052
       -0.001324843509876
       -0.002264228130460
        0.006798114203112
        0.034231700918807
        0.029242839155478
        0.012037583223892
        0.003093005978655
        0.000000000000000
        0.000000000000000
       -0.000767189061294
       -0.001910125281463
       -0.001887806957766
        0.001453603574421
        0.003267666604842
        0.002205869642892
        0.000690817620380
        0.000000000000000
        0.000000000000000
       -0.000271089752437
       -0.000734444062356
       -0.001173959363025
       -0.000943327334250
       -0.000232604738719
        0.000047974538023
        0.000000000000000
        0.000000000000000
        0.000000000000000
        0.000000000000000
        0.000000000000000
       -0.000261488948560
       -0.000261262752326
        0.000000000000000
        0.000000000000000
        0.000000000000000
        0.000000000000000
        0.000000000000000
        0.000000000000000
        0.000000000000000
        0.000246621352472
        0.000756162999807
        0.000768150782798
        0.000000000000000
        0.000000000000000
        0.000000000000000
        0.000000000000000
       -0.000245289518312
       -0.000222162177352
        0.001268994347659
        0.004384613789443
        0.005156635508222
        0.002923164939785
        0.000911786148011
        0.000000000000000
        0.000000000000000
       -0.001141573655239
       -0.002477207912806
        0.001699354317520
        0.020063079793658
        0.023560001623653
        0.010905831457026
        0.002967245855249
        0.000000000000000
       -0.000553835533146
       -0.003186527935278
       -0.010976244371020
       -0.012363288038467
        0.053215281100277
        0.067899718873639
        0.024167729510117
        0.005370254226094
        0.000806528454990
       -0.000832322473045
       -0.004826224760413
       -0.022083799650365
       -0.058575035250961
        0.000000000000001
        0.058575035250956
        0.022083799650363
        0.004826224760413
        0.000832322473045
       -0.000563142755160
       -0.003886280617751
       -0.016827191673652
       -0.048766679268350
       -0.053215281100280
       -0.006769751566830
        0.003635706534553
        0.001702554326935
        0.000310449833317
        0.000000000000000
       -0.001831469590072
       -0.006800332504380
       -0.016219463787188
       -0.020063079793659
       -0.009039892153987
       -0.001628291039840
        0.000005797390061
        0.000000000000000
        0.000000000000000
       -0.000488335537726
       -0.001787388674608
       -0.003672661899880
       -0.004384613789444
       -0.002752967956002
       -0.000913614087826
       -0.000178161091973
        0.000000000000000
        0.000000000000000
        0.000000000000000
        0.000000000000000
       -0.000524765082969
       -0.000756162999807
       -0.000490007052302
        0.000000000000000
        0.000000000000000
        0.000000000000000
        0.000000000000000
        0.000000000000000
        0.000000000000000
       -0.000030282402775
        0.000149234014955
        0.000000000000000
        0.000000000000000
        0.000000000000000
        0.000000000000000
        0.000000000000000
       -0.000416425296133
       -0.001164414765976
       -0.001281209282231
        0.000260264649175
        0.001425589802377
        0.001037536926300
        0.000000000000000
        0.000000000000000
        0.000000000000000
       -0.001847388963547
       -0.006393562654111
       -0.012122324297171
       -0.004832401860513
        0.003306790734724
        0.003115535221415
        0.001068357850611
        0.000000000000000
       -0.000660513377660
       -0.004428254097114
       -0.019973475822742
       -0.058292828621998
       -0.043038505388220
       -0.003410302174412
        0.003727261832171
        0.001585035239404
        0.000000000000000
       -0.000809737906571
       -0.005837142795158
       -0.028139583581342
       -0.092967821700450
       -0.127255972723197
       -0.039838815441753
       -0.003405777794768
        0.000615104922702
        0.000205462538582
        0.000000000000000
       -0.004176830089713
       -0.018010462180054
       -0.052711637955021
       -0.089768131753983
       -0.053580940559750
       -0.010463943005742
       -0.000905671402255
        0.000026631605881
        0.000000000000000
       -0.001677002220425
       -0.007040353386508
       -0.017589991082607
       -0.026712959515597
       -0.018315094531313
       -0.005633755584632
       -0.000957919696839
        0.000000000000000
        0.000000000000000
        0.000000000000000
       -0.001646181296114
       -0.004017384652686
       -0.005482302521632
       -0.004052716217138
       -0.001640893894411
       -0.000353516044445
        0.000000000000000
        0.000000000000000
        0.000000000000000
        0.000000000000000
        0.000000000000000
       -0.000753509382944
       -0.000603599369004
        0.000000000000000
        0.000000000000000
        0.000000000000000
        0.000000000000000
        0.000000000000000
        0.000000000000000
        0.000000000000000
        0.000000000000000
        0.000000000000000
        0.000000000000000
        0.000000000000000
        0.000000000000000
        0.000000000000000
        0.000000000000000
       -0.000894943517183
       -0.001520626108285
       -0.001093797481377
       -0.000239971905564
        0.000000000000000
        0.000000000000000
        0.000000000000000
        0.000000000000000
       -0.001182906432809
       -0.004220654580677
       -0.008016106978746
       -0.006808418063230
       -0.002459928583477
       -0.000223636650823
        0.000000000000000
        0.000000000000000
        0.000000000000000
       -0.002783396973030
       -0.010657083500336
       -0.024797010316719
       -0.025295544491729
       -0.010851124725454
       -0.002299120569809
       -0.000172304960029
        0.000000000000000
        0.000000000000000
       -0.003431948859535
       -0.013858225050726
       -0.035927127524017
       -0.047977698927381
       -0.024476648312447
       -0.006297502132528
       -0.000933858985175
        0.000000000000000
        0.000000000000000
       -0.002186000360707
       -0.009261786723889
       -0.023398461021181
       -0.035108231344735
       -0.023515050197984
       -0.007382920759225
       -0.001341929221450
        0.000000000000000
        0.000000000000000
        0.000000000000000
       -0.003456659723621
       -0.009100978710221
       -0.013347309120024
       -0.010023897280815
       -0.003879493370908
       -0.000797717501141
        0.000000000000000
        0.000000000000000
        0.000000000000000
        0.000000000000000
       -0.002118333415171
       -0.003272010363333
       -0.002604700086194
       -0.001085680416767
        0.000000000000000
        0.000000000000000
        0.000000000000000
        0.000000000000000
        0.000000000000000
        0.000000000000000
        0.000000000000000
        0.000000000000000
        0.000000000000000
        0.000000000000000
        0.000000000000000
        0.000000000000000
        0.000000000000000
        0.000000000000000
        0.000000000000000
        0.000000000000000
        0.000000000000000
        0.000000000000000
        0.000000000000000
        0.000000000000000
        0.000000000000000
        0.000000000000000
        0.000000000000000
       -0.000611719660694
       -0.000561118281107
        0.000000000000000
        0.000000000000000
        0.000000000000000
        0.000000000000000
        0.000000000000000
        0.000000000000000
       -0.001359823035677
       -0.002623201123616
       -0.002578070427458
       -0.001277760337260
        0.000000000000000
        0.000000000000000
        0.000000000000000
        0.000000000000000
       -0.000929595618702
       -0.003202997790789
       -0.006361713051413
       -0.006932609645175
       -0.003943185915259
       -0.001240914316035
        0.000000000000000
        0.000000000000000
        0.000000000000000
       -0.001075185191157
       -0.003996810327729
       -0.008574494806571
       -0.010485114073526
       -0.006791388089520
       -0.002462212846720
       -0.000518636643013
        0.000000000000000
        0.000000000000000
        0.000000000000000
       -0.002580945710044
       -0.006219995089974
       -0.008433273250916
       -0.006137059318289
       -0.002477249235719
       -0.000564050879209
        0.000000000000000
        0.000000000000000
        0.000000000000000
        0.000000000000000
       -0.002544099688819
       -0.003880952746991
       -0.003057045902892
       -0.001276403317735
        0.000000000000000
        0.000000000000000
        0.000000000000000
        0.000000000000000
        0.000000000000000
        0.000000000000000
       -0.001032703553063
       -0.000881926837217
        0.000000000000000
        0.000000000000000
        0.000000000000000
        0.000000000000000
        0.000000000000000
        0.000000000000000
        0.000000000000000
        0.000000000000000
        0.000000000000000
        0.000000000000000
        0.000000000000000
        0.000000000000000
        0.000000000000000
        0.000000000000000
        0.000000000000000
        0.000000000000000
        0.000000000000000
        0.000000000000000
        0.000000000000000
        0.000000000000000
        0.000000000000000
        0.000000000000000
        0.000000000000000
        0.000000000000000
        0.000000000000000
        0.000000000000000
        0.000000000000000
        0.000000000000000
        0.000000000000000
        0.000000000000000
        0.000000000000000
        0.000000000000000
        0.000000000000000
        0.000000000000000
        0.000000000000000
        0.000000000000000
        0.000000000000000
        0.000000000000000
        0.000000000000000
        0.000000000000000
        0.000000000000000
        0.000000000000000
       -0.001047710190336
       -0.001143001864629
        0.000000000000000
        0.000000000000000
        0.000000000000000
        0.000000000000000
        0.000000000000000
        0.000000000000000
        0.000000000000000
       -0.001301516900537
       -0.001808244851633
       -0.001125151013194
        0.000000000000000
        0.000000000000000
        0.000000000000000
        0.000000000000000
        0.000000000000000
        0.000000000000000
        0.000000000000000
       -0.001283666049102
       -0.001021012422171
        0.000000000000000
        0.000000000000000
        0.000000000000000
        0.000000000000000
        0.000000000000000
        0.000000000000000
        0.000000000000000
        0.000000000000000
        0.000000000000000
        0.000000000000000
        0.000000000000000
        0.000000000000000
        0.000000000000000
        0.000000000000000
        0.000000000000000
        0.000000000000000
        0.000000000000000
        0.000000000000000
        0.000000000000000
        0.000000000000000
        0.000000000000000
        0.000000000000000
        0.000000000000000
        0.000000000000000
        0.000000000000000
        0.000000000000000
        0.000000000000000
        0.000000000000000
        0.000000000000000
        0.000000000000000
END_DATAGRID_3D
END_BLOCK_DATAGRID_3D
