ATOMS
         C    7.558905    7.558905    7.558905
         H    8.755769    8.755769    8.755769
         H    6.362040    6.362040    8.755769
         H    8.755769    6.362040    6.362040
         H    6.362040    8.755769    6.362040
BEGIN_BLOCK_DATAGRID_3D
units: coords = b, function = 1/hbar/H*b^-2
BEGIN_DATAGRID_3D_function
      9      9      9
0.0 0.0 0.0
   15.117809    0.000000    0.000000
    0.000000   15.117809    0.000000
    0.000000    0.000000   15.117809
        0.000000000000000
        0.000000000000000
        0.000000000000000
        0.000000000000000
        0.000000000000000
        0.000000000000000
        0.000000000000000
        0.000000000000000
        0.000000000000000
        0.000000000000000
        0.000000000000000
        0.000000000000000
        0.000000000000000
        0.000000000000000
        0.000000000000000
        0.000000000000000
        0.000000000000000
        0.000000000000000
        0.000000000000000
        0.000000000000000
        0.000000000000000
        0.000000000000000
        0.000000000000000
        0.000000000000000
        0.000000000000000
        0.000000000000000
        0.000000000000000
        0.000000000000000
        0.000000000000000
        0.000000000000000
        0.000000000000000
       -0.000000000151139
        0.000000000008423
        0.000000000000000
        0.000000000000000
        0.000000000000000
        0.000000000000000
        0.000000000000000
        0.000000000000000
        0.000000000008008
       -0.000000000448071
        0.000000000008423
        0.000000000000000
        0.000000000000000
        0.000000000000000
        0.000000000000000
        0.000000000000000
        0.000000000000000
        0.000000000008008
       -0.000000000151490
        0.000000000000000
        0.000000000000000
        0.000000000000000
        0.000000000000000
        0.000000000000000
        0.000000000000000
        0.000000000000000
        0.000000000000000
        0.000000000000000
        0.000000000000000
        0.000000000000000
        0.000000000000000
        0.000000000000000
        0.000000000000000
        0.000000000000000
        0.000000000000000
        0.000000000000000
        0.000000000000000
        0.000000000000000
        0.000000000000000
        0.000000000000000
        0.000000000000000
        0.000000000000000
        0.000000000000000
        0.000000000000000
        0.000000000000000
        0.000000000000000
        0.000000000000000
        0.000000000000000
        0.000000000000000
        0.000000000000000
        0.000000000000000
        0.000000000000000
        0.000000000000000
        0.000000000000000
        0.000000000000000
        0.000000000000000
        0.000000000000000
        0.000000000000000
        0.000000000000000
        0.000000000000000
        0.000000000000000
        0.000000000000000
        0.000000000000000
       -0.000000000276128
        0.000000000256412
        0.000000000000000
        0.000000000000000
        0.000000000000000
        0.000000000000000
        0.000000000000000
        0.000000000000000
       -0.000000000512509
       -0.000000000332948
        0.000000000256330
        0.000000000290883
        0.000000000000000
        0.000000000000000
        0.000000000000000
        0.000000000000000
       -0.000000000327104
       -0.000000000749618
        0.000000000337505
       -0.000000000362910
        0.000000000425065
       -0.000000000000094
        0.000000000000000
        0.000000000000000
        0.000000000000366
       -0.000000000560299
        0.000000000300595
       -0.000000000258638
        0.000000000311197
       -0.000000000555587
       -0.000000000000094
        0.000000000000000
        0.000000000000000
        0.000000000000366
        0.000000000423341
       -0.000000000375006
        0.000000000322469
       -0.000000000747783
       -0.000000000325545
        0.000000000000000
        0.000000000000000
        0.000000000000000
        0.000000000000000
        0.000000000291195
        0.000000000255702
       -0.000000000338155
       -0.000000000509893
        0.000000000000000
        0.000000000000000
        0.000000000000000
        0.000000000000000
        0.000000000000000
        0.000000000000000
        0.000000000255076
       -0.000000000278926
        0.000000000000000
        0.000000000000000
        0.000000000000000
        0.000000000000000
        0.000000000000000
        0.000000000000000
        0.000000000000000
        0.000000000000000
        0.000000000000000
        0.000000000000000
        0.000000000000000
        0.000000000000000
        0.000000000000000
        0.000000000000000
        0.000000000000000
        0.000000000000000
        0.000000000000000
        0.000000000000000
        0.000000000000000
        0.000000000000000
        0.000000000000000
        0.000000000000000
        0.000000000000000
        0.000000000000000
        0.000000000000000
       -0.000000000735238
        0.000000000066904
       -0.000000000082375
        0.000000000487955
        0.000000000000000
        0.000000000000000
        0.000000000000000
        0.000000000000000
       -0.000000000989812
        0.000000000171492
        0.000000001974524
       -0.000000002859383
       -0.000000000768578
        0.000000000152556
        0.000000000000000
        0.000000000000000
       -0.000000000139258
       -0.000000000540587
        0.000000007379543
       -0.000000004403874
       -0.000000013755972
       -0.000000001812486
        0.000000000136398
        0.000000000000000
        0.000000000000000
       -0.000000000312509
        0.000000002183516
       -0.000000005043106
       -0.000000013298573
       -0.000000005118392
        0.000000002218948
       -0.000000000310412
        0.000000000000000
        0.000000000000000
        0.000000000132956
       -0.000000001838684
       -0.000000013775924
       -0.000000004465058
        0.000000007389034
       -0.000000000526142
       -0.000000000138991
        0.000000000000000
        0.000000000000000
        0.000000000151420
       -0.000000000761310
       -0.000000002937242
        0.000000001961184
        0.000000000183887
       -0.000000000981695
        0.000000000000000
        0.000000000000000
        0.000000000000000
        0.000000000000000
        0.000000000486418
       -0.000000000084563
        0.000000000062445
       -0.000000000733272
        0.000000000000000
        0.000000000000000
        0.000000000000000
        0.000000000000000
        0.000000000000000
        0.000000000000000
        0.000000000000000
        0.000000000000000
        0.000000000000000
        0.000000000000000
        0.000000000000000
        0.000000000000000
        0.000000000000000
        0.000000000000000
        0.000000000000000
        0.000000000000000
       -0.000000000382526
        0.000000000259754
        0.000000000000000
        0.000000000000000
        0.000000000000000
        0.000000000000000
        0.000000000000000
       -0.000000000464080
       -0.000000001482339
       -0.000000003800576
        0.000000002329940
        0.000000001882373
       -0.000000000122276
        0.000000000000000
        0.000000000000000
        0.000000000077023
       -0.000000002288011
        0.000000034613077
        0.000000062565957
       -0.000000045443390
       -0.000000037724419
        0.000000002315409
        0.000000000000000
        0.000000000000000
       -0.000000002340166
        0.000000031130639
        0.000000107955959
       -0.000000176862127
       -0.000000339492696
       -0.000000023809858
        0.000000001672246
        0.000000000005878
        0.000000000005523
       -0.000000004288360
        0.000000062528121
       -0.000000180949491
       -0.000000437331813
       -0.000000183228591
        0.000000062733995
       -0.000000004290326
        0.000000000005878
        0.000000000005523
        0.000000001649891
       -0.000000023836950
       -0.000000337340064
       -0.000000175857466
        0.000000108408274
        0.000000031227682
       -0.000000002350341
        0.000000000000000
        0.000000000000000
        0.000000002303472
       -0.000000037671945
       -0.000000046021099
        0.000000062707035
        0.000000034724176
       -0.000000002287661
        0.000000000078022
        0.000000000000000
        0.000000000000000
       -0.000000000123714
        0.000000001876638
        0.000000002328333
       -0.000000003815953
       -0.000000001486122
       -0.000000000462325
        0.000000000000000
        0.000000000000000
        0.000000000000000
        0.000000000000000
        0.000000000000000
        0.000000000261636
       -0.000000000380172
        0.000000000000000
        0.000000000000000
        0.000000000000000
        0.000000000000000
        0.000000000000000
        0.000000000000000
        0.000000000000000
       -0.000000000183877
       -0.000000000002028
        0.000000000181598
        0.000000000000000
        0.000000000000000
        0.000000000000000
        0.000000000000000
        0.000000000066076
       -0.000000000761507
       -0.000000007135606
        0.000000000023301
        0.000000007158338
        0.000000000767029
       -0.000000000062974
        0.000000000000000
        0.000000000000000
       -0.000000001144491
        0.000000015833608
        0.000000147244350
       -0.000000000608781
       -0.000000147645411
       -0.000000015870248
        0.000000001156797
        0.000000000000000
       -0.000000000003088
       -0.000000006709252
        0.000000124845407
        0.000000526934584
       -0.000000000046239
       -0.000000530037003
       -0.000000125220189
        0.000000006760045
        0.000000000003783
        0.000000000000000
        0.000000000000000
       -0.000000000000000
        0.000000000000000
        0.000000000000000
       -0.000000000000000
        0.000000000000000
        0.000000000000000
        0.000000000000000
        0.000000000003088
        0.000000006709252
       -0.000000124845407
       -0.000000526934584
        0.000000000046239
        0.000000530037003
        0.000000125220189
       -0.000000006760045
       -0.000000000003783
        0.000000000000000
        0.000000001144491
       -0.000000015833608
       -0.000000147244350
        0.000000000608781
        0.000000147645411
        0.000000015870248
       -0.000000001156797
        0.000000000000000
        0.000000000000000
       -0.000000000066076
        0.000000000761507
        0.000000007135606
       -0.000000000023301
       -0.000000007158338
       -0.000000000767029
        0.000000000062974
        0.000000000000000
        0.000000000000000
        0.000000000000000
        0.000000000000000
        0.000000000183877
        0.000000000002028
       -0.000000000181598
        0.000000000000000
        0.000000000000000
        0.000000000000000
        0.000000000000000
        0.000000000000000
        0.000000000000000
       -0.000000000261636
        0.000000000380172
        0.000000000000000
        0.000000000000000
        0.000000000000000
        0.000000000000000
        0.000000000000000
        0.000000000123714
       -0.000000001876638
       -0.000000002328333
        0.000000003815953
        0.000000001486122
        0.000000000462325
        0.000000000000000
        0.000000000000000
        0.000000000000000
       -0.000000002303472
        0.000000037671945
        0.000000046021099
       -0.000000062707035
       -0.000000034724176
        0.000000002287661
       -0.000000000078022
        0.000000000000000
       -0.000000000005523
       -0.000000001649891
        0.000000023836950
        0.000000337340064
        0.000000175857466
       -0.000000108408274
       -0.000000031227682
        0.000000002350341
        0.000000000000000
       -0.000000000005523
        0.000000004288360
       -0.000000062528121
        0.000000180949491
        0.000000437331813
        0.000000183228591
       -0.000000062733995
        0.000000004290326
       -0.000000000005878
        0.000000000000000
        0.000000002340166
       -0.000000031130639
       -0.000000107955959
        0.000000176862127
        0.000000339492696
        0.000000023809858
       -0.000000001672246
       -0.000000000005878
        0.000000000000000
       -0.000000000077023
        0.000000002288011
       -0.000000034613077
       -0.000000062565957
        0.000000045443390
        0.000000037724419
       -0.000000002315409
        0.000000000000000
        0.000000000000000
        0.000000000000000
        0.000000000464080
        0.000000001482339
        0.000000003800576
       -0.000000002329940
       -0.000000001882373
        0.000000000122276
        0.000000000000000
        0.000000000000000
        0.000000000000000
        0.000000000000000
        0.000000000000000
        0.000000000382526
       -0.000000000259754
        0.000000000000000
        0.000000000000000
        0.000000000000000
        0.000000000000000
        0.000000000000000
        0.000000000000000
        0.000000000000000
        0.000000000000000
        0.000000000000000
        0.000000000000000
        0.000000000000000
        0.000000000000000
        0.000000000000000
        0.000000000000000
       -0.000000000486418
        0.000000000084563
       -0.000000000062445
        0.000000000733272
        0.000000000000000
        0.000000000000000
        0.000000000000000
        0.000000000000000
       -0.000000000151420
        0.000000000761310
        0.000000002937242
       -0.000000001961184
       -0.000000000183887
        0.000000000981695
        0.000000000000000
        0.000000000000000
        0.000000000000000
       -0.000000000132956
        0.000000001838684
        0.000000013775924
        0.000000004465058
       -0.000000007389034
        0.000000000526142
        0.000000000138991
        0.000000000000000
        0.000000000000000
        0.000000000312509
       -0.000000002183516
        0.000000005043106
        0.000000013298573
        0.000000005118392
       -0.000000002218948
        0.000000000310412
        0.000000000000000
        0.000000000000000
        0.000000000139258
        0.000000000540587
       -0.000000007379543
        0.000000004403874
        0.000000013755972
        0.000000001812486
       -0.000000000136398
        0.000000000000000
        0.000000000000000
        0.000000000000000
        0.000000000989812
       -0.000000000171492
       -0.000000001974524
        0.000000002859383
        0.000000000768578
       -0.000000000152556
        0.000000000000000
        0.000000000000000
        0.000000000000000
        0.000000000000000
        0.000000000735238
       -0.000000000066904
        0.000000000082375
       -0.000000000487955
        0.000000000000000
        0.000000000000000
        0.000000000000000
        0.000000000000000
        0.000000000000000
        0.000000000000000
        0.000000000000000
        0.000000000000000
        0.000000000000000
        0.000000000000000
        0.000000000000000
        0.000000000000000
        0.000000000000000
        0.000000000000000
        0.000000000000000
        0.000000000000000
        0.000000000000000
        0.000000000000000
        0.000000000000000
        0.000000000000000
        0.000000000000000
        0.000000000000000
        0.000000000000000
       -0.000000000255076
        0.000000000278926
        0.000000000000000
        0.000000000000000
        0.000000000000000
        0.000000000000000
        0.000000000000000
        0.000000000000000
       -0.000000000291195
       -0.000000000255702
        0.000000000338155
        0.000000000509893
        0.000000000000000
        0.000000000000000
        0.000000000000000
        0.000000000000000
       -0.000000000000366
       -0.000000000423341
        0.000000000375006
       -0.000000000322469
        0.000000000747783
        0.000000000325545
        0.000000000000000
        0.000000000000000
        0.000000000000000
       -0.000000000000366
        0.000000000560299
       -0.000000000300595
        0.000000000258638
       -0.000000000311197
        0.000000000555587
        0.000000000000094
        0.000000000000000
        0.000000000000000
        0.000000000000000
        0.000000000327104
        0.000000000749618
       -0.000000000337505
        0.000000000362910
       -0.000000000425065
        0.000000000000094
        0.000000000000000
        0.000000000000000
        0.000000000000000
        0.000000000000000
        0.000000000512509
        0.000000000332948
       -0.000000000256330
       -0.000000000290883
        0.000000000000000
        0.000000000000000
        0.000000000000000
        0.000000000000000
        0.000000000000000
        0.000000000000000
        0.000000000276128
       -0.000000000256412
        0.000000000000000
        0.000000000000000
        0.000000000000000
        0.000000000000000
        0.000000000000000
        0.000000000000000
        0.000000000000000
        0.000000000000000
        0.000000000000000
        0.000000000000000
        0.000000000000000
        0.000000000000000
        0.000000000000000
        0.000000000000000
        0.000000000000000
        0.000000000000000
        0.000000000000000
        0.000000000000000
        0.000000000000000
        0.000000000000000
        0.000000000000000
        0.000000000000000
        0.000000000000000
        0.000000000000000
        0.000000000000000
        0.000000000000000
        0.000000000000000
        0.000000000000000
        0.000000000000000
        0.000000000000000
        0.000000000000000
        0.000000000000000
        0.000000000000000
        0.000000000000000
        0.000000000000000
        0.000000000000000
        0.000000000000000
        0.000000000000000
        0.000000000000000
        0.000000000000000
        0.000000000000000
        0.000000000000000
       -0.000000000008008
        0.000000000151490
        0.000000000000000
        0.000000000000000
        0.000000000000000
        0.000000000000000
        0.000000000000000
        0.000000000000000
        0.000000000000000
       -0.000000000008008
        0.000000000448071
       -0.000000000008423
        0.000000000000000
        0.000000000000000
        0.000000000000000
        0.000000000000000
        0.000000000000000
        0.000000000000000
        0.000000000000000
        0.000000000151139
       -0.000000000008423
        0.000000000000000
        0.000000000000000
        0.000000000000000
        0.000000000000000
        0.000000000000000
        0.000000000000000
        0.000000000000000
        0.000000000000000
        0.000000000000000
        0.000000000000000
        0.000000000000000
        0.000000000000000
        0.000000000000000
        0.000000000000000
        0.000000000000000
        0.000000000000000
        0.000000000000000
        0.000000000000000
        0.000000000000000
        0.000000000000000
        0.000000000000000
        0.000000000000000
        0.000000000000000
        0.000000000000000
        0.000000000000000
        0.000000000000000
        0.000000000000000
        0.000000000000000
        0.000000000000000
        0.000000000000000
END_DATAGRID_3D
END_BLOCK_DATAGRID_3D
