ATOMS
         C    7.558905    7.558905    7.558905
         H    8.755769    8.755769    8.755769
         H    6.362040    6.362040    8.755769
         H    8.755769    6.362040    6.362040
         H    6.362040    8.755769    6.362040
BEGIN_BLOCK_DATAGRID_3D
units: coords = b, function = sqrt(b^-3)
BEGIN_DATAGRID_3D_function
      9      9      9
0.0 0.0 0.0
   15.117809    0.000000    0.000000
    0.000000   15.117809    0.000000
    0.000000    0.000000   15.117809
        0.000000000000000
        0.000000000000000
        0.000000000000000
        0.000000000000000
        0.000000000000000
        0.000000000000000
        0.000000000000000
        0.000000000000000
        0.000000000000000
        0.000000000000000
        0.000000000000000
        0.000000000000000
        0.000000000000000
        0.000000000000000
        0.000000000000000
        0.000000000000000
        0.000000000000000
        0.000000000000000
        0.000000000000000
        0.000000000000000
        0.000000000000000
        0.000000000000000
        0.000000000000000
        0.000000000000000
        0.000000000000000
        0.000000000000000
        0.000000000000000
        0.000000000000000
        0.000000000000000
        0.000000000000000
        0.000000000000000
        0.000737796259538
        0.000514050321776
        0.000000000000000
        0.000000000000000
        0.000000000000000
        0.000000000000000
        0.000000000000000
        0.000000000000000
        0.001179603759139
        0.001476010430612
        0.000800766348309
        0.000000000000000
        0.000000000000000
        0.000000000000000
        0.000000000000000
        0.000000000000000
        0.000000000000000
        0.001174733597400
        0.001242473568190
        0.000000000000000
        0.000000000000000
        0.000000000000000
        0.000000000000000
        0.000000000000000
        0.000000000000000
        0.000000000000000
        0.000000000000000
        0.000000000000000
        0.000000000000000
        0.000000000000000
        0.000000000000000
        0.000000000000000
        0.000000000000000
        0.000000000000000
        0.000000000000000
        0.000000000000000
        0.000000000000000
        0.000000000000000
        0.000000000000000
        0.000000000000000
        0.000000000000000
        0.000000000000000
        0.000000000000000
        0.000000000000000
        0.000000000000000
        0.000000000000000
        0.000000000000000
        0.000000000000000
        0.000000000000000
        0.000000000000000
        0.000000000000000
        0.000000000000000
        0.000000000000000
        0.000000000000000
        0.000000000000000
        0.000000000000000
        0.000000000000000
        0.000000000000000
        0.000000000000000
        0.000000000000000
        0.000000000000000
        0.000000000000000
        0.000000000000000
        0.000023175271583
       -0.000042780399916
        0.000000000000000
        0.000000000000000
        0.000000000000000
        0.000000000000000
        0.000000000000000
        0.000000000000000
        0.000845308098377
        0.000922183040799
        0.000399031847038
        0.000044831164966
        0.000000000000000
        0.000000000000000
        0.000000000000000
        0.000000000000000
        0.001757965099684
        0.003697978425467
        0.004202114817043
        0.002325006573251
        0.000629666789875
        0.000083701499579
        0.000000000000000
        0.000000000000000
        0.001075582238928
        0.003791074135767
        0.007699086125295
        0.008565174534211
        0.004853746745847
        0.001485839468408
        0.000227709075018
        0.000000000000000
        0.000000000000000
        0.001137628147436
        0.004013390275520
        0.007885952619231
        0.008349126822255
        0.004600496801508
        0.001362716262418
        0.000000000000000
        0.000000000000000
        0.000000000000000
        0.000000000000000
        0.002109577084259
        0.004242424686052
        0.004352195997178
        0.002274298556215
        0.000000000000000
        0.000000000000000
        0.000000000000000
        0.000000000000000
        0.000000000000000
        0.000000000000000
        0.001262965453155
        0.001278911605228
        0.000000000000000
        0.000000000000000
        0.000000000000000
        0.000000000000000
        0.000000000000000
        0.000000000000000
        0.000000000000000
        0.000000000000000
        0.000000000000000
        0.000000000000000
        0.000000000000000
        0.000000000000000
        0.000000000000000
        0.000000000000000
        0.000000000000000
        0.000000000000000
        0.000000000000000
        0.000000000000000
        0.000000000000000
        0.000000000000000
        0.000000000000000
        0.000000000000000
        0.000000000000000
        0.000000000000000
        0.000000000000000
       -0.000261046025507
       -0.000660365025155
       -0.000775995097139
       -0.000450095244527
        0.000000000000000
        0.000000000000000
        0.000000000000000
        0.000000000000000
        0.000859627724296
        0.001378306386030
        0.000508986636502
       -0.000988247812967
       -0.000909828575164
       -0.000335350313467
        0.000000000000000
        0.000000000000000
        0.001414157944055
        0.005360173918503
        0.011497511681017
        0.012431714020950
        0.003878089517992
        0.000063634395300
       -0.000272786416908
        0.000000000000000
        0.000000000000000
        0.003299628541161
        0.013161491219190
        0.032709819456603
        0.039221667175046
        0.016663267538464
        0.003315371293814
        0.000270715141919
        0.000000000000000
        0.000000000000000
        0.003648925786259
        0.014686796037602
        0.035614302518650
        0.036933726500121
        0.016485358178865
        0.004083099232983
        0.000513390943282
        0.000000000000000
        0.000000000000000
        0.001956289077458
        0.007535054886910
        0.015733322306850
        0.015958174149434
        0.008060270045201
        0.002144477567226
        0.000000000000000
        0.000000000000000
        0.000000000000000
        0.000000000000000
        0.002069942769870
        0.004148426790051
        0.004225750478112
        0.002185984963267
        0.000000000000000
        0.000000000000000
        0.000000000000000
        0.000000000000000
        0.000000000000000
        0.000000000000000
        0.000000000000000
        0.000000000000000
        0.000000000000000
        0.000000000000000
        0.000000000000000
        0.000000000000000
        0.000000000000000
        0.000000000000000
        0.000000000000000
        0.000000000000000
       -0.000638803139498
       -0.000569846753535
        0.000000000000000
        0.000000000000000
        0.000000000000000
        0.000000000000000
        0.000000000000000
       -0.000673536984166
       -0.002029837363521
       -0.003470444060967
       -0.003090753994912
       -0.001542251817627
       -0.000462625687621
        0.000000000000000
        0.000000000000000
        0.000088911844779
       -0.000420584637190
       -0.003616382023244
       -0.009408197202116
       -0.009640586190531
       -0.004479842329155
       -0.001269745184008
        0.000000000000000
        0.000000000000000
        0.001916934182149
        0.006795610979650
        0.013114103814638
        0.004728293414242
       -0.012578207476134
       -0.006509632949181
       -0.001835156820003
       -0.000318379455952
        0.000752077873466
        0.005315408131013
        0.025917248150503
        0.083963960334612
        0.104050607561215
        0.024638357280016
       -0.000115526350939
       -0.001038719699244
       -0.000256397734863
        0.000838425847379
        0.006205438742634
        0.031410578527686
        0.104063501117151
        0.103848390803822
        0.032756417175984
        0.004877215185987
        0.000202868497916
        0.000000000000000
        0.000000000000000
        0.003568983510983
        0.014322957748318
        0.034533052972860
        0.035188750764204
        0.015279067990717
        0.003622276500827
        0.000407874299114
        0.000000000000000
        0.000000000000000
        0.001093820046986
        0.003839443940271
        0.007452733306681
        0.007736090869921
        0.004143385784399
        0.001168876364861
        0.000000000000000
        0.000000000000000
        0.000000000000000
        0.000000000000000
        0.000000000000000
        0.001088049265598
        0.001132440993619
        0.000000000000000
        0.000000000000000
        0.000000000000000
        0.000000000000000
        0.000000000000000
        0.000000000000000
        0.000000000000000
       -0.000838721614221
       -0.001257514154337
       -0.000848360449350
        0.000000000000000
        0.000000000000000
        0.000000000000000
        0.000000000000000
       -0.000452506504910
       -0.001957547438738
       -0.005052203019114
       -0.007297131034524
       -0.005640348526556
       -0.002535063877044
       -0.000656233857003
        0.000000000000000
        0.000000000000000
       -0.000866917801020
       -0.005209870573790
       -0.018576625187245
       -0.033413756332432
       -0.023474449197998
       -0.008813839429909
       -0.002167951062615
        0.000000000000000
        0.000110205665110
        0.000235022145742
       -0.003530026930801
       -0.031083872369182
       -0.088637094560831
       -0.061382639595185
       -0.018414039640359
       -0.003860827121423
       -0.000528894431427
        0.000626483417614
        0.003633403208755
        0.016621789525179
        0.044086775912228
        0.000011735279885
       -0.044018883875879
       -0.016590175558188
       -0.003619405242578
       -0.000623345432380
        0.000730227931629
        0.005089079599925
        0.024452333876716
        0.077086237441516
        0.088655770313489
        0.015454222551612
       -0.002463861752747
       -0.001443119014850
       -0.000307458349856
        0.000000000000000
        0.003104085052633
        0.012190244833804
        0.029499854936044
        0.033418421220978
        0.012569860937103
        0.001850765307558
       -0.000061004015607
        0.000000000000000
        0.000000000000000
        0.001004710279121
        0.003469057066578
        0.006859667688395
        0.007297838017779
        0.003836160848329
        0.001027629081372
        0.000106047681234
        0.000000000000000
        0.000000000000000
        0.000000000000000
        0.000000000000000
        0.001047722273725
        0.001257614798105
        0.000639657032572
        0.000000000000000
        0.000000000000000
        0.000000000000000
        0.000000000000000
        0.000000000000000
        0.000000000000000
       -0.000868838098237
       -0.001048364472599
        0.000000000000000
        0.000000000000000
        0.000000000000000
        0.000000000000000
        0.000000000000000
       -0.000576525577848
       -0.002410968864178
       -0.005607106859056
       -0.007222603613653
       -0.005038689416715
       -0.001983325007247
        0.000000000000000
        0.000000000000000
        0.000000000000000
       -0.001601222016088
       -0.008076695460416
       -0.023996200238389
       -0.032647068342288
       -0.020215575845602
       -0.007614692435416
       -0.001726587744710
        0.000000000000000
       -0.000121803068444
       -0.001875387959308
       -0.014680138365736
       -0.065326704296832
       -0.097217817700602
       -0.052161099256906
       -0.016711421620708
       -0.003710109256812
        0.000000000000000
        0.000088355723273
        0.000008693614654
       -0.004994941204588
       -0.037961595262276
       -0.104031931808555
       -0.070566774323588
       -0.020762375042167
       -0.004265226437029
       -0.000579955046420
        0.000000000000000
        0.001603189193358
        0.005066921690563
        0.006324398733272
       -0.011333880902007
       -0.026097425521544
       -0.010185585738896
       -0.002478354152276
       -0.000394762791104
        0.000000000000000
        0.001234573702343
        0.004423415990600
        0.008562368850011
        0.006872992408000
       -0.000879098638817
       -0.001751157354800
       -0.000690768704023
        0.000000000000000
        0.000000000000000
        0.000000000000000
        0.001490039643537
        0.002926976869508
        0.002958046141357
        0.001248271820229
        0.000117608982922
       -0.000052776949090
        0.000000000000000
        0.000000000000000
        0.000000000000000
        0.000000000000000
        0.000000000000000
        0.000554834893527
        0.000350930679186
        0.000000000000000
        0.000000000000000
        0.000000000000000
        0.000000000000000
        0.000000000000000
        0.000000000000000
        0.000000000000000
        0.000000000000000
        0.000000000000000
        0.000000000000000
        0.000000000000000
        0.000000000000000
        0.000000000000000
        0.000000000000000
       -0.001384452688559
       -0.003177747621735
       -0.003833136223112
       -0.002396318595207
        0.000000000000000
        0.000000000000000
        0.000000000000000
        0.000000000000000
       -0.001043440084911
       -0.004730479251681
       -0.011571117030196
       -0.014537592264077
       -0.009416148038568
       -0.003415386397127
        0.000000000000000
        0.000000000000000
        0.000000000000000
       -0.001681164291364
       -0.008440533749700
       -0.025077449784179
       -0.034392044078205
       -0.021421866033750
       -0.008075515167572
       -0.001832104388877
        0.000000000000000
        0.000000000000000
       -0.001062461289548
       -0.006181116959176
       -0.021786589707804
       -0.039217002286499
       -0.027567855799358
       -0.010278445416165
       -0.002499670220141
        0.000000000000000
        0.000000000000000
       -0.000090672396933
       -0.001357342565093
       -0.006551524854250
       -0.014966918815065
       -0.014397774347340
       -0.006294634079255
       -0.001687727471123
        0.000000000000000
        0.000000000000000
        0.000000000000000
        0.000414456539436
       -0.000019473467177
       -0.001927316915944
       -0.003167125105471
       -0.001887534517573
       -0.000574191991227
        0.000000000000000
        0.000000000000000
        0.000000000000000
        0.000000000000000
        0.000471801133965
        0.000268248221252
       -0.000193074741574
       -0.000233703073400
        0.000000000000000
        0.000000000000000
        0.000000000000000
        0.000000000000000
        0.000000000000000
        0.000000000000000
        0.000000000000000
        0.000000000000000
        0.000000000000000
        0.000000000000000
        0.000000000000000
        0.000000000000000
        0.000000000000000
        0.000000000000000
        0.000000000000000
        0.000000000000000
        0.000000000000000
        0.000000000000000
        0.000000000000000
        0.000000000000000
        0.000000000000000
        0.000000000000000
        0.000000000000000
       -0.000996700266794
       -0.001132540451354
        0.000000000000000
        0.000000000000000
        0.000000000000000
        0.000000000000000
        0.000000000000000
        0.000000000000000
       -0.001424087002948
       -0.003271745517736
       -0.003959581742179
       -0.002484632188155
        0.000000000000000
        0.000000000000000
        0.000000000000000
        0.000000000000000
       -0.000620333678298
       -0.002584915199427
       -0.006040326171605
       -0.007835639565987
       -0.005495800433824
       -0.002177164904803
        0.000000000000000
        0.000000000000000
        0.000000000000000
       -0.000523378464717
       -0.002279564507927
       -0.005891621456014
       -0.008564467550956
       -0.006657934424075
       -0.002993274264081
       -0.000777895250788
        0.000000000000000
        0.000000000000000
        0.000000000000000
       -0.000941462440314
       -0.002800838919480
       -0.004714512736653
       -0.004167488747935
       -0.002054309624580
       -0.000599104136290
        0.000000000000000
        0.000000000000000
        0.000000000000000
        0.000000000000000
       -0.000634552989919
       -0.001314299844702
       -0.001368101685751
       -0.000728629482893
        0.000000000000000
        0.000000000000000
        0.000000000000000
        0.000000000000000
        0.000000000000000
        0.000000000000000
       -0.000169416288823
       -0.000223142031151
        0.000000000000000
        0.000000000000000
        0.000000000000000
        0.000000000000000
        0.000000000000000
        0.000000000000000
        0.000000000000000
        0.000000000000000
        0.000000000000000
        0.000000000000000
        0.000000000000000
        0.000000000000000
        0.000000000000000
        0.000000000000000
        0.000000000000000
        0.000000000000000
        0.000000000000000
        0.000000000000000
        0.000000000000000
        0.000000000000000
        0.000000000000000
        0.000000000000000
        0.000000000000000
        0.000000000000000
        0.000000000000000
        0.000000000000000
        0.000000000000000
        0.000000000000000
        0.000000000000000
        0.000000000000000
        0.000000000000000
        0.000000000000000
        0.000000000000000
        0.000000000000000
        0.000000000000000
        0.000000000000000
        0.000000000000000
        0.000000000000000
        0.000000000000000
        0.000000000000000
        0.000000000000000
        0.000000000000000
       -0.000955522430039
       -0.001158397047170
        0.000000000000000
        0.000000000000000
        0.000000000000000
        0.000000000000000
        0.000000000000000
        0.000000000000000
        0.000000000000000
       -0.000970603099635
       -0.001475909786844
       -0.001009469765087
        0.000000000000000
        0.000000000000000
        0.000000000000000
        0.000000000000000
        0.000000000000000
        0.000000000000000
        0.000000000000000
       -0.000821764505510
       -0.000732966396124
        0.000000000000000
        0.000000000000000
        0.000000000000000
        0.000000000000000
        0.000000000000000
        0.000000000000000
        0.000000000000000
        0.000000000000000
        0.000000000000000
        0.000000000000000
        0.000000000000000
        0.000000000000000
        0.000000000000000
        0.000000000000000
        0.000000000000000
        0.000000000000000
        0.000000000000000
        0.000000000000000
        0.000000000000000
        0.000000000000000
        0.000000000000000
        0.000000000000000
        0.000000000000000
        0.000000000000000
        0.000000000000000
        0.000000000000000
        0.000000000000000
        0.000000000000000
        0.000000000000000
        0.000000000000000
END_DATAGRID_3D
END_BLOCK_DATAGRID_3D
