ATOMS
         C    7.558905    7.558905    7.558905
         H    8.755769    8.755769    8.755769
         H    6.362040    6.362040    8.755769
         H    8.755769    6.362040    6.362040
         H    6.362040    8.755769    6.362040
BEGIN_BLOCK_DATAGRID_3D
units: coords = b, function = 1/hbar/H*b^-2
BEGIN_DATAGRID_3D_function
      9      9      9
0.0 0.0 0.0
   15.117809    0.000000    0.000000
    0.000000   15.117809    0.000000
    0.000000    0.000000   15.117809
        0.000000000000000
        0.000000000000000
        0.000000000000000
        0.000000000000000
        0.000000000000000
        0.000000000000000
        0.000000000000000
        0.000000000000000
        0.000000000000000
        0.000000000000000
        0.000000000000000
        0.000000000000000
        0.000000000000000
        0.000000000000000
        0.000000000000000
        0.000000000000000
        0.000000000000000
        0.000000000000000
        0.000000000000000
        0.000000000000000
        0.000000000000000
        0.000000000000000
        0.000000000000000
        0.000000000000000
        0.000000000000000
        0.000000000000000
        0.000000000000000
        0.000000000000000
        0.000000000000000
        0.000000000000000
        0.000000000000000
       -0.000000000758708
        0.000000000507582
        0.000000000000000
        0.000000000000000
        0.000000000000000
        0.000000000000000
        0.000000000000000
        0.000000000000000
       -0.000000000409139
       -0.000000000001095
        0.000000000405793
        0.000000000000000
        0.000000000000000
        0.000000000000000
        0.000000000000000
        0.000000000000000
        0.000000000000000
       -0.000000000509318
        0.000000000755016
        0.000000000000000
        0.000000000000000
        0.000000000000000
        0.000000000000000
        0.000000000000000
        0.000000000000000
        0.000000000000000
        0.000000000000000
        0.000000000000000
        0.000000000000000
        0.000000000000000
        0.000000000000000
        0.000000000000000
        0.000000000000000
        0.000000000000000
        0.000000000000000
        0.000000000000000
        0.000000000000000
        0.000000000000000
        0.000000000000000
        0.000000000000000
        0.000000000000000
        0.000000000000000
        0.000000000000000
        0.000000000000000
        0.000000000000000
        0.000000000000000
        0.000000000000000
        0.000000000000000
        0.000000000000000
        0.000000000000000
        0.000000000000000
        0.000000000000000
        0.000000000000000
        0.000000000000000
        0.000000000000000
        0.000000000000000
        0.000000000000000
        0.000000000000000
        0.000000000000000
        0.000000000000000
        0.000000000000000
        0.000000000000000
        0.000000000000000
       -0.000000000523849
        0.000000000484866
        0.000000000000000
        0.000000000000000
        0.000000000000000
        0.000000000000000
        0.000000000000000
        0.000000000000000
       -0.000000001423787
        0.000000000003644
       -0.000000000095437
        0.000000000974083
        0.000000000000000
        0.000000000000000
        0.000000000000000
        0.000000000000000
       -0.000000000946560
       -0.000000002968060
       -0.000000007350180
        0.000000004789900
        0.000000003485638
       -0.000000000195612
        0.000000000000000
        0.000000000000000
        0.000000000122267
       -0.000000001647752
       -0.000000013588958
        0.000000000007884
        0.000000013625368
        0.000000001655229
       -0.000000000119012
        0.000000000000000
        0.000000000000000
        0.000000000196480
       -0.000000003470370
       -0.000000004792396
        0.000000007367956
        0.000000002973507
        0.000000000946891
        0.000000000000000
        0.000000000000000
        0.000000000000000
        0.000000000000000
       -0.000000000974129
        0.000000000101504
       -0.000000000000990
        0.000000001423432
        0.000000000000000
        0.000000000000000
        0.000000000000000
        0.000000000000000
        0.000000000000000
        0.000000000000000
       -0.000000000484361
        0.000000000526485
        0.000000000000000
        0.000000000000000
        0.000000000000000
        0.000000000000000
        0.000000000000000
        0.000000000000000
        0.000000000000000
        0.000000000000000
        0.000000000000000
        0.000000000000000
        0.000000000000000
        0.000000000000000
        0.000000000000000
        0.000000000000000
        0.000000000000000
        0.000000000000000
        0.000000000000000
        0.000000000000000
        0.000000000000000
        0.000000000000000
        0.000000000000000
        0.000000000000000
        0.000000000000000
        0.000000000000000
        0.000000000000000
       -0.000000000991522
       -0.000000000696792
        0.000000000512345
        0.000000000579256
        0.000000000000000
        0.000000000000000
        0.000000000000000
        0.000000000000000
       -0.000000001947313
        0.000000000395213
        0.000000004520738
       -0.000000005728893
       -0.000000001968087
        0.000000000337093
        0.000000000000000
        0.000000000000000
        0.000000000077334
       -0.000000004104796
        0.000000070642989
        0.000000124858943
       -0.000000095697532
       -0.000000074299152
        0.000000004309360
        0.000000000000000
        0.000000000000000
       -0.000000002407340
        0.000000034138702
        0.000000293638547
       -0.000000000389383
       -0.000000294430144
       -0.000000034272047
        0.000000002428987
        0.000000000000000
        0.000000000000000
       -0.000000004282746
        0.000000074067765
        0.000000096454274
       -0.000000124989904
       -0.000000070908976
        0.000000004100704
       -0.000000000075745
        0.000000000000000
        0.000000000000000
       -0.000000000335785
        0.000000001954241
        0.000000005833455
       -0.000000004489178
       -0.000000000423300
        0.000000001943754
        0.000000000000000
        0.000000000000000
        0.000000000000000
        0.000000000000000
       -0.000000000580996
       -0.000000000509429
        0.000000000700823
        0.000000000989427
        0.000000000000000
        0.000000000000000
        0.000000000000000
        0.000000000000000
        0.000000000000000
        0.000000000000000
        0.000000000000000
        0.000000000000000
        0.000000000000000
        0.000000000000000
        0.000000000000000
        0.000000000000000
        0.000000000000000
        0.000000000000000
        0.000000000000000
        0.000000000000000
       -0.000000000296558
        0.000000000010826
        0.000000000000000
        0.000000000000000
        0.000000000000000
        0.000000000000000
        0.000000000000000
       -0.000000000641144
       -0.000000001526241
        0.000000000587415
       -0.000000000593772
        0.000000000824342
        0.000000000000735
        0.000000000000000
        0.000000000000000
       -0.000000000297150
       -0.000000000973435
        0.000000015771357
       -0.000000009222990
       -0.000000030150869
       -0.000000003496868
        0.000000000281688
        0.000000000000000
        0.000000000000000
       -0.000000004657245
        0.000000064131868
        0.000000214769010
       -0.000000355638497
       -0.000000676356397
       -0.000000050921133
        0.000000003361490
       -0.000000000002080
       -0.000000000049985
       -0.000000012365446
        0.000000247522742
        0.000000949039710
        0.000000003350222
       -0.000000954280953
       -0.000000248513575
        0.000000012454654
        0.000000000051155
        0.000000000002559
       -0.000000003322890
        0.000000050810505
        0.000000672780373
        0.000000355937007
       -0.000000215482068
       -0.000000064414147
        0.000000004680942
        0.000000000000000
        0.000000000000000
       -0.000000000275844
        0.000000003521867
        0.000000030086563
        0.000000009348922
       -0.000000015812052
        0.000000000947328
        0.000000000299083
        0.000000000000000
        0.000000000000000
       -0.000000000001225
       -0.000000000822129
        0.000000000608441
       -0.000000000566948
        0.000000001523588
        0.000000000640366
        0.000000000000000
        0.000000000000000
        0.000000000000000
        0.000000000000000
        0.000000000000000
       -0.000000000010149
        0.000000000296267
        0.000000000000000
        0.000000000000000
        0.000000000000000
        0.000000000000000
        0.000000000000000
        0.000000000000000
        0.000000000000000
        0.000000000010149
       -0.000000000878030
        0.000000000010826
        0.000000000000000
        0.000000000000000
        0.000000000000000
        0.000000000000000
        0.000000000001225
       -0.000000001123058
        0.000000000566723
       -0.000000000433164
        0.000000000576426
       -0.000000001116682
        0.000000000000735
        0.000000000000000
        0.000000000000000
       -0.000000000695923
        0.000000005085066
       -0.000000011053855
       -0.000000029459394
       -0.000000011226977
        0.000000005146477
       -0.000000000695009
        0.000000000000000
       -0.000000000002559
       -0.000000007889283
        0.000000121292258
       -0.000000357182740
       -0.000000875851025
       -0.000000360916744
        0.000000121792720
       -0.000000007904203
       -0.000000000002080
       -0.000000000000000
       -0.000000000000000
        0.000000000000000
       -0.000000000000000
       -0.000000000000000
       -0.000000000000000
        0.000000000000000
        0.000000000000000
       -0.000000000000000
        0.000000000002559
        0.000000007889283
       -0.000000121292258
        0.000000357182740
        0.000000875851025
        0.000000360916744
       -0.000000121792720
        0.000000007904203
        0.000000000002080
        0.000000000000000
        0.000000000695923
       -0.000000005085066
        0.000000011053855
        0.000000029459394
        0.000000011226977
       -0.000000005146477
        0.000000000695009
        0.000000000000000
        0.000000000000000
       -0.000000000001225
        0.000000001123058
       -0.000000000566723
        0.000000000433164
       -0.000000000576426
        0.000000001116682
       -0.000000000000735
        0.000000000000000
        0.000000000000000
        0.000000000000000
        0.000000000000000
       -0.000000000010149
        0.000000000878030
       -0.000000000010826
        0.000000000000000
        0.000000000000000
        0.000000000000000
        0.000000000000000
        0.000000000000000
        0.000000000000000
        0.000000000010149
       -0.000000000296267
        0.000000000000000
        0.000000000000000
        0.000000000000000
        0.000000000000000
        0.000000000000000
        0.000000000001225
        0.000000000822129
       -0.000000000608441
        0.000000000566948
       -0.000000001523588
       -0.000000000640366
        0.000000000000000
        0.000000000000000
        0.000000000000000
        0.000000000275844
       -0.000000003521867
       -0.000000030086563
       -0.000000009348922
        0.000000015812052
       -0.000000000947328
       -0.000000000299083
        0.000000000000000
       -0.000000000002559
        0.000000003322890
       -0.000000050810505
       -0.000000672780373
       -0.000000355937007
        0.000000215482068
        0.000000064414147
       -0.000000004680942
        0.000000000000000
        0.000000000049985
        0.000000012365446
       -0.000000247522742
       -0.000000949039710
       -0.000000003350223
        0.000000954280953
        0.000000248513575
       -0.000000012454654
       -0.000000000051155
        0.000000000000000
        0.000000004657245
       -0.000000064131868
       -0.000000214769010
        0.000000355638497
        0.000000676356397
        0.000000050921133
       -0.000000003361490
        0.000000000002080
        0.000000000000000
        0.000000000297150
        0.000000000973435
       -0.000000015771357
        0.000000009222990
        0.000000030150869
        0.000000003496868
       -0.000000000281688
        0.000000000000000
        0.000000000000000
        0.000000000000000
        0.000000000641144
        0.000000001526241
       -0.000000000587415
        0.000000000593772
       -0.000000000824342
       -0.000000000000735
        0.000000000000000
        0.000000000000000
        0.000000000000000
        0.000000000000000
        0.000000000000000
        0.000000000296558
       -0.000000000010826
        0.000000000000000
        0.000000000000000
        0.000000000000000
        0.000000000000000
        0.000000000000000
        0.000000000000000
        0.000000000000000
        0.000000000000000
        0.000000000000000
        0.000000000000000
        0.000000000000000
        0.000000000000000
        0.000000000000000
        0.000000000000000
        0.000000000580996
        0.000000000509429
       -0.000000000700823
       -0.000000000989427
        0.000000000000000
        0.000000000000000
        0.000000000000000
        0.000000000000000
        0.000000000335785
       -0.000000001954241
       -0.000000005833455
        0.000000004489178
        0.000000000423300
       -0.000000001943754
        0.000000000000000
        0.000000000000000
        0.000000000000000
        0.000000004282746
       -0.000000074067765
       -0.000000096454274
        0.000000124989904
        0.000000070908976
       -0.000000004100704
        0.000000000075745
        0.000000000000000
        0.000000000000000
        0.000000002407340
       -0.000000034138702
       -0.000000293638547
        0.000000000389383
        0.000000294430144
        0.000000034272047
       -0.000000002428987
        0.000000000000000
        0.000000000000000
       -0.000000000077334
        0.000000004104796
       -0.000000070642989
       -0.000000124858943
        0.000000095697532
        0.000000074299152
       -0.000000004309360
        0.000000000000000
        0.000000000000000
        0.000000000000000
        0.000000001947313
       -0.000000000395213
       -0.000000004520738
        0.000000005728893
        0.000000001968087
       -0.000000000337093
        0.000000000000000
        0.000000000000000
        0.000000000000000
        0.000000000000000
        0.000000000991522
        0.000000000696792
       -0.000000000512345
       -0.000000000579256
        0.000000000000000
        0.000000000000000
        0.000000000000000
        0.000000000000000
        0.000000000000000
        0.000000000000000
        0.000000000000000
        0.000000000000000
        0.000000000000000
        0.000000000000000
        0.000000000000000
        0.000000000000000
        0.000000000000000
        0.000000000000000
        0.000000000000000
        0.000000000000000
        0.000000000000000
        0.000000000000000
        0.000000000000000
        0.000000000000000
        0.000000000000000
        0.000000000000000
        0.000000000000000
        0.000000000484361
       -0.000000000526485
        0.000000000000000
        0.000000000000000
        0.000000000000000
        0.000000000000000
        0.000000000000000
        0.000000000000000
        0.000000000974129
       -0.000000000101504
        0.000000000000990
       -0.000000001423432
        0.000000000000000
        0.000000000000000
        0.000000000000000
        0.000000000000000
       -0.000000000196480
        0.000000003470370
        0.000000004792396
       -0.000000007367956
       -0.000000002973507
       -0.000000000946891
        0.000000000000000
        0.000000000000000
        0.000000000000000
       -0.000000000122267
        0.000000001647752
        0.000000013588958
       -0.000000000007884
       -0.000000013625368
       -0.000000001655229
        0.000000000119012
        0.000000000000000
        0.000000000000000
        0.000000000000000
        0.000000000946560
        0.000000002968060
        0.000000007350180
       -0.000000004789900
       -0.000000003485638
        0.000000000195612
        0.000000000000000
        0.000000000000000
        0.000000000000000
        0.000000000000000
        0.000000001423787
       -0.000000000003644
        0.000000000095437
       -0.000000000974083
        0.000000000000000
        0.000000000000000
        0.000000000000000
        0.000000000000000
        0.000000000000000
        0.000000000000000
        0.000000000523849
       -0.000000000484866
        0.000000000000000
        0.000000000000000
        0.000000000000000
        0.000000000000000
        0.000000000000000
        0.000000000000000
        0.000000000000000
        0.000000000000000
        0.000000000000000
        0.000000000000000
        0.000000000000000
        0.000000000000000
        0.000000000000000
        0.000000000000000
        0.000000000000000
        0.000000000000000
        0.000000000000000
        0.000000000000000
        0.000000000000000
        0.000000000000000
        0.000000000000000
        0.000000000000000
        0.000000000000000
        0.000000000000000
        0.000000000000000
        0.000000000000000
        0.000000000000000
        0.000000000000000
        0.000000000000000
        0.000000000000000
        0.000000000000000
        0.000000000000000
        0.000000000000000
        0.000000000000000
        0.000000000000000
        0.000000000000000
        0.000000000000000
        0.000000000000000
        0.000000000000000
        0.000000000000000
        0.000000000000000
        0.000000000000000
        0.000000000509318
       -0.000000000755016
        0.000000000000000
        0.000000000000000
        0.000000000000000
        0.000000000000000
        0.000000000000000
        0.000000000000000
        0.000000000000000
        0.000000000409139
        0.000000000001095
       -0.000000000405793
        0.000000000000000
        0.000000000000000
        0.000000000000000
        0.000000000000000
        0.000000000000000
        0.000000000000000
        0.000000000000000
        0.000000000758708
       -0.000000000507582
        0.000000000000000
        0.000000000000000
        0.000000000000000
        0.000000000000000
        0.000000000000000
        0.000000000000000
        0.000000000000000
        0.000000000000000
        0.000000000000000
        0.000000000000000
        0.000000000000000
        0.000000000000000
        0.000000000000000
        0.000000000000000
        0.000000000000000
        0.000000000000000
        0.000000000000000
        0.000000000000000
        0.000000000000000
        0.000000000000000
        0.000000000000000
        0.000000000000000
        0.000000000000000
        0.000000000000000
        0.000000000000000
        0.000000000000000
        0.000000000000000
        0.000000000000000
        0.000000000000000
        0.000000000000000
END_DATAGRID_3D
END_BLOCK_DATAGRID_3D
