ATOMS
         C    7.558905    7.558905    7.558905
         H    8.755769    8.755769    8.755769
         H    6.362040    6.362040    8.755769
         H    8.755769    6.362040    6.362040
         H    6.362040    8.755769    6.362040
BEGIN_BLOCK_DATAGRID_3D
units: coords = b, function = sqrt(b^-3)
BEGIN_DATAGRID_3D_function
      9      9      9
0.0 0.0 0.0
   15.117809    0.000000    0.000000
    0.000000   15.117809    0.000000
    0.000000    0.000000   15.117809
        0.000000000000000
        0.000000000000000
        0.000000000000000
        0.000000000000000
        0.000000000000000
        0.000000000000000
        0.000000000000000
        0.000000000000000
        0.000000000000000
        0.000000000000000
        0.000000000000000
        0.000000000000000
        0.000000000000000
        0.000000000000000
        0.000000000000000
        0.000000000000000
        0.000000000000000
        0.000000000000000
        0.000000000000000
        0.000000000000000
        0.000000000000000
        0.000000000000000
        0.000000000000000
        0.000000000000000
        0.000000000000000
        0.000000000000000
        0.000000000000000
        0.000000000000000
        0.000000000000000
        0.000000000000000
        0.000000000000000
       -0.000430792251278
       -0.000420622398506
        0.000000000000000
        0.000000000000000
        0.000000000000000
        0.000000000000000
        0.000000000000000
        0.000000000000000
       -0.000255236178339
       -0.000502224060886
       -0.000420048167922
        0.000000000000000
        0.000000000000000
        0.000000000000000
        0.000000000000000
        0.000000000000000
        0.000000000000000
       -0.000156355172172
       -0.000243009569970
        0.000000000000000
        0.000000000000000
        0.000000000000000
        0.000000000000000
        0.000000000000000
        0.000000000000000
        0.000000000000000
        0.000000000000000
        0.000000000000000
        0.000000000000000
        0.000000000000000
        0.000000000000000
        0.000000000000000
        0.000000000000000
        0.000000000000000
        0.000000000000000
        0.000000000000000
        0.000000000000000
        0.000000000000000
        0.000000000000000
        0.000000000000000
        0.000000000000000
        0.000000000000000
        0.000000000000000
        0.000000000000000
        0.000000000000000
        0.000000000000000
        0.000000000000000
        0.000000000000000
        0.000000000000000
        0.000000000000000
        0.000000000000000
        0.000000000000000
        0.000000000000000
        0.000000000000000
        0.000000000000000
        0.000000000000000
        0.000000000000000
        0.000000000000000
        0.000000000000000
        0.000000000000000
        0.000000000000000
        0.000000000000000
        0.000000000000000
       -0.000451301345321
       -0.000457534323417
        0.000000000000000
        0.000000000000000
        0.000000000000000
        0.000000000000000
        0.000000000000000
        0.000000000000000
       -0.000762207511921
       -0.001524357964929
       -0.001538568247544
       -0.000785435615190
        0.000000000000000
        0.000000000000000
        0.000000000000000
        0.000000000000000
       -0.000404323865977
       -0.001502076511002
       -0.002895736823927
       -0.002853207189639
       -0.001498819398540
       -0.000436231700314
        0.000000000000000
        0.000000000000000
       -0.000038080732419
       -0.000393257727737
       -0.001511267281268
       -0.002914196881854
       -0.002770944946851
       -0.001420560534217
       -0.000415495071302
        0.000000000000000
        0.000000000000000
        0.000008679637375
       -0.000106119173002
       -0.000640945780245
       -0.001374567499708
       -0.001319444945861
       -0.000661880939504
        0.000000000000000
        0.000000000000000
        0.000000000000000
        0.000000000000000
        0.000037552021411
       -0.000054107411859
       -0.000270059846057
       -0.000294778634701
        0.000000000000000
        0.000000000000000
        0.000000000000000
        0.000000000000000
        0.000000000000000
        0.000000000000000
        0.000037937412092
        0.000008285515318
        0.000000000000000
        0.000000000000000
        0.000000000000000
        0.000000000000000
        0.000000000000000
        0.000000000000000
        0.000000000000000
        0.000000000000000
        0.000000000000000
        0.000000000000000
        0.000000000000000
        0.000000000000000
        0.000000000000000
        0.000000000000000
        0.000000000000000
        0.000000000000000
        0.000000000000000
        0.000000000000000
        0.000000000000000
        0.000000000000000
        0.000000000000000
        0.000000000000000
        0.000000000000000
        0.000000000000000
        0.000000000000000
       -0.000738251962024
       -0.001489744073400
       -0.001512599943146
       -0.000774387593958
        0.000000000000000
        0.000000000000000
        0.000000000000000
        0.000000000000000
       -0.000647676089839
       -0.002673437015319
       -0.005604658463928
       -0.005754665723007
       -0.002834167297377
       -0.000754477567711
        0.000000000000000
        0.000000000000000
       -0.000086895430841
       -0.001118108282756
       -0.005287408264499
       -0.012860727729645
       -0.013059274899821
       -0.005562052881544
       -0.001421768008227
        0.000000000000000
        0.000000000000000
        0.000059171574485
       -0.000635783969679
       -0.004867037609653
       -0.013343706546115
       -0.011994683819487
       -0.005050610447855
       -0.001311098721166
        0.000000000000000
        0.000000000000000
        0.000228176853033
        0.000433533873272
       -0.000490981057366
       -0.003932890392441
       -0.004221548281398
       -0.002112309366780
       -0.000582284432561
        0.000000000000000
        0.000000000000000
        0.000177616863018
        0.000518769858913
        0.000679583935201
        0.000002883923278
       -0.000517258539522
       -0.000368974059589
        0.000000000000000
        0.000000000000000
        0.000000000000000
        0.000000000000000
        0.000205484312539
        0.000348284179898
        0.000276928277020
        0.000091095802104
        0.000000000000000
        0.000000000000000
        0.000000000000000
        0.000000000000000
        0.000000000000000
        0.000000000000000
        0.000000000000000
        0.000000000000000
        0.000000000000000
        0.000000000000000
        0.000000000000000
        0.000000000000000
        0.000000000000000
        0.000000000000000
        0.000000000000000
        0.000000000000000
       -0.000400668317351
       -0.000396676090358
        0.000000000000000
        0.000000000000000
        0.000000000000000
        0.000000000000000
        0.000000000000000
       -0.000352227701371
       -0.001378084888326
       -0.002727911735314
       -0.002733520660982
       -0.001450329660551
       -0.000423910837776
        0.000000000000000
        0.000000000000000
       -0.000058801264968
       -0.000994275061403
       -0.004960217971579
       -0.012383006717827
       -0.012760524221863
       -0.005460617121153
       -0.001399284749987
        0.000000000000000
        0.000000000000000
        0.000149760484925
       -0.000910976991838
       -0.009981800771540
       -0.036303301995569
       -0.038783278214883
       -0.012142942499836
       -0.002488169522785
       -0.000347527968984
        0.000138695577669
        0.000692820450291
        0.001433248531754
       -0.005192663035217
       -0.035394083330128
       -0.031991084279291
       -0.010429157995324
       -0.002228571219878
       -0.000324042531777
        0.000152630260159
        0.000907298069264
        0.003386060584968
        0.007243221595955
       -0.000627681810125
       -0.005576689544307
       -0.003099495199494
       -0.000899935358236
        0.000000000000000
        0.000000000000000
        0.000563293079019
        0.001974917458385
        0.004137921188834
        0.003615136165114
        0.001050198792727
       -0.000077677707506
       -0.000111735557162
        0.000000000000000
        0.000000000000000
        0.000192318854250
        0.000630788636083
        0.001213646032125
        0.001277207580274
        0.000678321454267
        0.000193815657519
        0.000000000000000
        0.000000000000000
        0.000000000000000
        0.000000000000000
        0.000000000000000
        0.000214854930842
        0.000232747552485
        0.000000000000000
        0.000000000000000
        0.000000000000000
        0.000000000000000
        0.000000000000000
        0.000000000000000
        0.000000000000000
       -0.000211531801212
       -0.000442432971962
       -0.000383613574019
        0.000000000000000
        0.000000000000000
        0.000000000000000
        0.000000000000000
       -0.000005688034706
       -0.000270111197854
       -0.001235235343304
       -0.002567232197732
       -0.002539024893465
       -0.001330789351031
       -0.000395562492306
        0.000000000000000
        0.000000000000000
        0.000147491215927
       -0.000242232964783
       -0.003756730807227
       -0.011754899402757
       -0.011107703612383
       -0.004779811648938
       -0.001256101956834
        0.000000000000000
        0.000152170697249
        0.000800468758209
        0.002064191293562
       -0.002701289599846
       -0.031179240270016
       -0.030090736977134
       -0.010020651823515
       -0.002164911717890
       -0.000317846294206
        0.000284502573430
        0.001665922919825
        0.007711390992462
        0.020663956400052
        0.000037704539458
       -0.021043031089747
       -0.008010458597521
       -0.001767380305518
       -0.000307133228763
        0.000229489942424
        0.001641337196839
        0.007639618043671
        0.024261465199415
        0.031196845590231
        0.008133219108324
       -0.000062827551510
       -0.000424340005237
       -0.000094243462934
        0.000000000000000
        0.000878881561124
        0.003478749060377
        0.008875482347092
        0.011758723855891
        0.005893729717275
        0.001415842531721
        0.000168319078224
        0.000000000000000
        0.000000000000000
        0.000259043653671
        0.000970917242364
        0.002082182533069
        0.002567822862039
        0.001676311370408
        0.000602506712452
        0.000127074088618
        0.000000000000000
        0.000000000000000
        0.000000000000000
        0.000000000000000
        0.000309510790924
        0.000442485606759
        0.000283861647552
        0.000000000000000
        0.000000000000000
        0.000000000000000
        0.000000000000000
        0.000000000000000
        0.000000000000000
       -0.000112101662803
       -0.000192920865986
        0.000000000000000
        0.000000000000000
        0.000000000000000
        0.000000000000000
        0.000000000000000
        0.000045018046136
        0.000031500501644
       -0.000348850972064
       -0.001033952825337
       -0.001106417952334
       -0.000587189610947
        0.000000000000000
        0.000000000000000
        0.000000000000000
        0.000339458580357
        0.000921187395095
        0.000799507048057
       -0.002410898367640
       -0.003410483885227
       -0.001851135513627
       -0.000531776666884
        0.000000000000000
        0.000172794974721
        0.001078470378984
        0.004373862848446
        0.010910652122383
        0.003770065044206
       -0.003700502417278
       -0.002617449326732
       -0.000811704011273
        0.000000000000000
        0.000242965062004
        0.001748985504758
        0.008270560805478
        0.026752838634787
        0.035411688650342
        0.010033566410480
        0.000345678620300
       -0.000360680503248
       -0.000088047225363
        0.000000000000000
        0.001465188523243
        0.006411499931864
        0.019091961860932
        0.033180018680160
        0.020292053553029
        0.004079901730132
        0.000382291449509
       -0.000003862779909
        0.000000000000000
        0.000666044880128
        0.002850208451135
        0.007278042600808
        0.011183971421363
        0.007730324505787
        0.002450291000316
        0.000442486019209
        0.000000000000000
        0.000000000000000
        0.000000000000000
        0.000730905445889
        0.001798482420646
        0.002485537586077
        0.001852461975332
        0.000762028322591
        0.000172394353173
        0.000000000000000
        0.000000000000000
        0.000000000000000
        0.000000000000000
        0.000000000000000
        0.000360946690519
        0.000292030670655
        0.000000000000000
        0.000000000000000
        0.000000000000000
        0.000000000000000
        0.000000000000000
        0.000000000000000
        0.000000000000000
        0.000000000000000
        0.000000000000000
        0.000000000000000
        0.000000000000000
        0.000000000000000
        0.000000000000000
        0.000000000000000
        0.000112415751179
        0.000106519382127
       -0.000091009851038
       -0.000191580865916
        0.000000000000000
        0.000000000000000
        0.000000000000000
        0.000000000000000
        0.000241209069943
        0.000781515727063
        0.001270672288345
        0.000669949552881
       -0.000131024249967
       -0.000244865707336
        0.000000000000000
        0.000000000000000
        0.000000000000000
        0.000674574806344
        0.002462570980208
        0.005428409294257
        0.005137128189915
        0.001861263188898
        0.000183496145648
       -0.000061227791485
        0.000000000000000
        0.000000000000000
        0.000967201202567
        0.003872300065273
        0.009985789149517
        0.013347530999249
        0.006780709924380
        0.001686641330638
        0.000223315842556
        0.000000000000000
        0.000000000000000
        0.000694139046001
        0.002974041672488
        0.007605232893728
        0.011661692433181
        0.008029075183745
        0.002551726760707
        0.000464969277448
        0.000000000000000
        0.000000000000000
        0.000000000000000
        0.001238574282527
        0.003310224284530
        0.004933620736367
        0.003767594805047
        0.001482637434377
        0.000310626764208
        0.000000000000000
        0.000000000000000
        0.000000000000000
        0.000000000000000
        0.000837099385504
        0.001304190243791
        0.001049177183029
        0.000444100230351
        0.000000000000000
        0.000000000000000
        0.000000000000000
        0.000000000000000
        0.000000000000000
        0.000000000000000
        0.000000000000000
        0.000000000000000
        0.000000000000000
        0.000000000000000
        0.000000000000000
        0.000000000000000
        0.000000000000000
        0.000000000000000
        0.000000000000000
        0.000000000000000
        0.000000000000000
        0.000000000000000
        0.000000000000000
        0.000000000000000
        0.000000000000000
        0.000000000000000
        0.000000000000000
        0.000086872077498
        0.000061012834182
        0.000000000000000
        0.000000000000000
        0.000000000000000
        0.000000000000000
        0.000000000000000
        0.000000000000000
        0.000280348042307
        0.000508910973884
        0.000455978272039
        0.000194293570889
        0.000000000000000
        0.000000000000000
        0.000000000000000
        0.000000000000000
        0.000228657263011
        0.000768408310730
        0.001505740840306
        0.001617822254645
        0.000891348447793
        0.000268506986076
        0.000000000000000
        0.000000000000000
        0.000000000000000
        0.000291436351384
        0.001094063772248
        0.002358214471033
        0.002914787546162
        0.001908231423794
        0.000692277895638
        0.000147006667614
        0.000000000000000
        0.000000000000000
        0.000000000000000
        0.000783001610495
        0.001922474043323
        0.002653362674690
        0.001972148503988
        0.000810518060579
        0.000184715215711
        0.000000000000000
        0.000000000000000
        0.000000000000000
        0.000000000000000
        0.000861054935402
        0.001338804135321
        0.001075145487428
        0.000455148251583
        0.000000000000000
        0.000000000000000
        0.000000000000000
        0.000000000000000
        0.000000000000000
        0.000000000000000
        0.000382084577463
        0.000330419274290
        0.000000000000000
        0.000000000000000
        0.000000000000000
        0.000000000000000
        0.000000000000000
        0.000000000000000
        0.000000000000000
        0.000000000000000
        0.000000000000000
        0.000000000000000
        0.000000000000000
        0.000000000000000
        0.000000000000000
        0.000000000000000
        0.000000000000000
        0.000000000000000
        0.000000000000000
        0.000000000000000
        0.000000000000000
        0.000000000000000
        0.000000000000000
        0.000000000000000
        0.000000000000000
        0.000000000000000
        0.000000000000000
        0.000000000000000
        0.000000000000000
        0.000000000000000
        0.000000000000000
        0.000000000000000
        0.000000000000000
        0.000000000000000
        0.000000000000000
        0.000000000000000
        0.000000000000000
        0.000000000000000
        0.000000000000000
        0.000000000000000
        0.000000000000000
        0.000000000000000
        0.000000000000000
        0.000000000000000
        0.000259108440211
        0.000282836256469
        0.000000000000000
        0.000000000000000
        0.000000000000000
        0.000000000000000
        0.000000000000000
        0.000000000000000
        0.000000000000000
        0.000353215168051
        0.000502276695683
        0.000320296241455
        0.000000000000000
        0.000000000000000
        0.000000000000000
        0.000000000000000
        0.000000000000000
        0.000000000000000
        0.000000000000000
        0.000391070624446
        0.000315976978803
        0.000000000000000
        0.000000000000000
        0.000000000000000
        0.000000000000000
        0.000000000000000
        0.000000000000000
        0.000000000000000
        0.000000000000000
        0.000000000000000
        0.000000000000000
        0.000000000000000
        0.000000000000000
        0.000000000000000
        0.000000000000000
        0.000000000000000
        0.000000000000000
        0.000000000000000
        0.000000000000000
        0.000000000000000
        0.000000000000000
        0.000000000000000
        0.000000000000000
        0.000000000000000
        0.000000000000000
        0.000000000000000
        0.000000000000000
        0.000000000000000
        0.000000000000000
        0.000000000000000
        0.000000000000000
END_DATAGRID_3D
END_BLOCK_DATAGRID_3D
