ATOMS
         C    7.558905    7.558905    7.558905
         H    8.755769    8.755769    8.755769
         H    6.362040    6.362040    8.755769
         H    8.755769    6.362040    6.362040
         H    6.362040    8.755769    6.362040
BEGIN_BLOCK_DATAGRID_3D
units: coords = b, function = sqrt(b^-3)
BEGIN_DATAGRID_3D_function
      9      9      9
0.0 0.0 0.0
   15.117809    0.000000    0.000000
    0.000000   15.117809    0.000000
    0.000000    0.000000   15.117809
        0.000000000000000
        0.000000000000000
        0.000000000000000
        0.000000000000000
        0.000000000000000
        0.000000000000000
        0.000000000000000
        0.000000000000000
        0.000000000000000
        0.000000000000000
        0.000000000000000
        0.000000000000000
        0.000000000000000
        0.000000000000000
        0.000000000000000
        0.000000000000000
        0.000000000000000
        0.000000000000000
        0.000000000000000
        0.000000000000000
        0.000000000000000
        0.000000000000000
        0.000000000000000
        0.000000000000000
        0.000000000000000
        0.000000000000000
        0.000000000000000
        0.000000000000000
        0.000000000000000
        0.000000000000000
        0.000000000000000
       -0.000050675180757
        0.000019291223723
        0.000000000000000
        0.000000000000000
        0.000000000000000
        0.000000000000000
        0.000000000000000
        0.000000000000000
       -0.000111030833794
       -0.000046914764488
        0.000049577180231
        0.000000000000000
        0.000000000000000
        0.000000000000000
        0.000000000000000
        0.000000000000000
        0.000000000000000
       -0.000072106553786
       -0.000012326849519
        0.000000000000000
        0.000000000000000
        0.000000000000000
        0.000000000000000
        0.000000000000000
        0.000000000000000
        0.000000000000000
        0.000000000000000
        0.000000000000000
        0.000000000000000
        0.000000000000000
        0.000000000000000
        0.000000000000000
        0.000000000000000
        0.000000000000000
        0.000000000000000
        0.000000000000000
        0.000000000000000
        0.000000000000000
        0.000000000000000
        0.000000000000000
        0.000000000000000
        0.000000000000000
        0.000000000000000
        0.000000000000000
        0.000000000000000
        0.000000000000000
        0.000000000000000
        0.000000000000000
        0.000000000000000
        0.000000000000000
        0.000000000000000
        0.000000000000000
        0.000000000000000
        0.000000000000000
        0.000000000000000
        0.000000000000000
        0.000000000000000
        0.000000000000000
        0.000000000000000
        0.000000000000000
        0.000000000000000
        0.000000000000000
        0.000000000000000
       -0.000109392996100
       -0.000037699806315
        0.000000000000000
        0.000000000000000
        0.000000000000000
        0.000000000000000
        0.000000000000000
        0.000000000000000
       -0.000392437945509
       -0.000330830589804
       -0.000005000933814
        0.000111495805293
        0.000000000000000
        0.000000000000000
        0.000000000000000
        0.000000000000000
       -0.000513016960769
       -0.000840064697702
       -0.000473125393556
        0.000226630563551
        0.000367079034763
        0.000167429921481
        0.000000000000000
        0.000000000000000
       -0.000248228200825
       -0.000715611678581
       -0.000950231374807
       -0.000272529777965
        0.000565658404270
        0.000572953095838
        0.000220503950920
        0.000000000000000
        0.000000000000000
       -0.000195603698300
       -0.000497780747228
       -0.000543890441660
        0.000073804504025
        0.000589998896334
        0.000432027811735
        0.000000000000000
        0.000000000000000
        0.000000000000000
        0.000000000000000
       -0.000174424783614
       -0.000141257840914
        0.000163078039245
        0.000299777217566
        0.000000000000000
        0.000000000000000
        0.000000000000000
        0.000000000000000
        0.000000000000000
        0.000000000000000
       -0.000001441152859
        0.000067920651789
        0.000000000000000
        0.000000000000000
        0.000000000000000
        0.000000000000000
        0.000000000000000
        0.000000000000000
        0.000000000000000
        0.000000000000000
        0.000000000000000
        0.000000000000000
        0.000000000000000
        0.000000000000000
        0.000000000000000
        0.000000000000000
        0.000000000000000
        0.000000000000000
        0.000000000000000
        0.000000000000000
        0.000000000000000
        0.000000000000000
        0.000000000000000
        0.000000000000000
        0.000000000000000
        0.000000000000000
        0.000000000000000
       -0.000521266353652
       -0.000516977539654
       -0.000144653554279
        0.000052081640536
        0.000000000000000
        0.000000000000000
        0.000000000000000
        0.000000000000000
       -0.001044344710881
       -0.001993795007841
       -0.001600944544975
        0.000024986097817
        0.000491698387125
        0.000238963797456
        0.000000000000000
        0.000000000000000
       -0.000737140672818
       -0.002517245231155
       -0.004352225539720
       -0.002722141850183
        0.001595291153272
        0.001720175835713
        0.000670478933344
        0.000000000000000
        0.000000000000000
       -0.001036582373539
       -0.003295559236738
       -0.005490424521499
       -0.001249014730258
        0.004010482653848
        0.002892250088343
        0.000982087954999
        0.000000000000000
        0.000000000000000
       -0.000736578704332
       -0.002114181697912
       -0.002809660520120
        0.001150088052180
        0.003537823834615
        0.002310821294530
        0.000718246595107
        0.000000000000000
        0.000000000000000
       -0.000275390850237
       -0.000679344359690
       -0.000489200595368
        0.001076571017784
        0.001729486575019
        0.000987945424240
        0.000000000000000
        0.000000000000000
        0.000000000000000
        0.000000000000000
       -0.000100607417295
        0.000035619919361
        0.000403515553569
        0.000469394594091
        0.000000000000000
        0.000000000000000
        0.000000000000000
        0.000000000000000
        0.000000000000000
        0.000000000000000
        0.000000000000000
        0.000000000000000
        0.000000000000000
        0.000000000000000
        0.000000000000000
        0.000000000000000
        0.000000000000000
        0.000000000000000
        0.000000000000000
        0.000000000000000
       -0.000212675989397
       -0.000109487484044
        0.000000000000000
        0.000000000000000
        0.000000000000000
        0.000000000000000
        0.000000000000000
       -0.000793180262611
       -0.001506868149976
       -0.001375656919872
       -0.000417020908832
        0.000106310411914
        0.000101170657365
        0.000000000000000
        0.000000000000000
       -0.000888225773473
       -0.003183196831125
       -0.006111792937577
       -0.005291234931050
       -0.000011333384185
        0.001174673536828
        0.000549568230759
        0.000000000000000
        0.000000000000000
       -0.002010319954179
       -0.007471808806725
       -0.016099523088206
       -0.011942468813113
        0.006724168337665
        0.005028073621803
        0.001613563918326
        0.000298980108518
       -0.000390495285570
       -0.002521486269398
       -0.010009820458011
       -0.022753267188534
       -0.003321012295642
        0.019693510275181
        0.009567052386390
        0.002534256755733
        0.000405359999282
       -0.000292616890101
       -0.001656163946720
       -0.005614412107195
       -0.009487007631751
        0.008475975660988
        0.014932511551201
        0.007389289567372
        0.002061509299010
        0.000000000000000
        0.000000000000000
       -0.000589272923847
       -0.001436641506107
       -0.000774951349717
        0.004467945729496
        0.005855105890976
        0.003205176689249
        0.000925083996498
        0.000000000000000
        0.000000000000000
       -0.000114882097638
       -0.000173860950020
        0.000271325513933
        0.001239435313687
        0.001468149567587
        0.000808163150189
        0.000000000000000
        0.000000000000000
        0.000000000000000
        0.000000000000000
        0.000000000000000
        0.000091064876626
        0.000196799921464
        0.000000000000000
        0.000000000000000
        0.000000000000000
        0.000000000000000
        0.000000000000000
        0.000000000000000
        0.000000000000000
       -0.000346064692680
       -0.000368459911242
       -0.000146361161988
        0.000000000000000
        0.000000000000000
        0.000000000000000
        0.000000000000000
       -0.000422429991212
       -0.001377870381945
       -0.002434678833422
       -0.002138440104772
       -0.000681563697599
        0.000090180682904
        0.000113310317994
        0.000000000000000
        0.000000000000000
       -0.001511548670022
       -0.005412001969284
       -0.011461444119093
       -0.009793318493024
       -0.000759528831023
        0.001435945459924
        0.000686325777451
        0.000000000000000
       -0.000462961925344
       -0.003100398471704
       -0.013402911077183
       -0.036151401447489
       -0.025987639625789
        0.009473802570409
        0.007370183599957
        0.002191908016521
        0.000372037807717
       -0.000606445129109
       -0.003551078037777
       -0.016437585958013
       -0.044047249048909
       -0.000080370922569
        0.044855283916091
        0.017075077880058
        0.003767344402696
        0.000654684589757
       -0.000350585147753
       -0.002104550326525
       -0.007281709927879
       -0.009806226694336
        0.025950112159653
        0.037330799575432
        0.014123741315125
        0.003327335892578
        0.000506371912660
        0.000000000000000
       -0.000676265534216
       -0.001486949410282
        0.000550323347694
        0.009785166296204
        0.011873625388628
        0.005734684531267
        0.001632390079168
        0.000000000000000
        0.000000000000000
       -0.000117622350674
       -0.000115966411936
        0.000629327860132
        0.002137181045889
        0.002520522156099
        0.001462225165154
        0.000458999038211
        0.000000000000000
        0.000000000000000
        0.000000000000000
        0.000000000000000
        0.000137212869832
        0.000368347715013
        0.000358992173355
        0.000000000000000
        0.000000000000000
        0.000000000000000
        0.000000000000000
        0.000000000000000
        0.000000000000000
       -0.000310093541819
       -0.000281694408515
        0.000000000000000
        0.000000000000000
        0.000000000000000
        0.000000000000000
        0.000000000000000
       -0.000391024775055
       -0.001237873280692
       -0.002114720972641
       -0.001757956673566
       -0.000555619909553
        0.000030351999600
        0.000000000000000
        0.000000000000000
        0.000000000000000
       -0.001335030747728
       -0.004736689935526
       -0.009749661023686
       -0.007034896663410
       -0.000823926803919
        0.000906277800649
        0.000446625401733
        0.000000000000000
       -0.000401058904120
       -0.002576696193908
       -0.010926625507034
       -0.029209754081899
       -0.015174273617051
        0.004842732690286
        0.004796938203844
        0.001587017833505
        0.000000000000000
       -0.000423051787527
       -0.002683462528832
       -0.010674800547052
       -0.023204360953291
        0.003283484829506
        0.027111091870660
        0.011926872528692
        0.002984987153367
        0.000473049721094
        0.000000000000000
       -0.001432102193204
       -0.004253095134612
       -0.003319678472785
        0.018600053419891
        0.032691689987414
        0.012159088313642
        0.002875321664108
        0.000450043724591
        0.000000000000000
       -0.000406173528988
       -0.000772907152696
        0.001171122490988
        0.007847096223985
        0.010733697261183
        0.005242131734917
        0.001489942072514
        0.000000000000000
        0.000000000000000
        0.000000000000000
       -0.000014008477006
        0.000610749592272
        0.001892301182363
        0.002295083880038
        0.001360871373940
        0.000434961389313
        0.000000000000000
        0.000000000000000
        0.000000000000000
        0.000000000000000
        0.000000000000000
        0.000297346531466
        0.000332549456024
        0.000000000000000
        0.000000000000000
        0.000000000000000
        0.000000000000000
        0.000000000000000
        0.000000000000000
        0.000000000000000
        0.000000000000000
        0.000000000000000
        0.000000000000000
        0.000000000000000
        0.000000000000000
        0.000000000000000
        0.000000000000000
       -0.000577027736795
       -0.001005078302694
       -0.000799818906784
       -0.000255200828592
        0.000000000000000
        0.000000000000000
        0.000000000000000
        0.000000000000000
       -0.000617377689345
       -0.002092341852349
       -0.003667961756538
       -0.002510781539672
       -0.000347608248821
        0.000320514222424
        0.000000000000000
        0.000000000000000
        0.000000000000000
       -0.001187724967243
       -0.004059149743721
       -0.007714951853283
       -0.003717038986094
        0.001493355252442
        0.001800633195368
        0.000653462803124
        0.000000000000000
        0.000000000000000
       -0.001151231830699
       -0.003603392142828
       -0.005420696249900
        0.001240862533437
        0.007103613903757
        0.004278379902848
        0.001336627901620
        0.000000000000000
        0.000000000000000
       -0.000557258629643
       -0.001438858752666
       -0.000588444906868
        0.005278003143118
        0.009127072723726
        0.004696629436032
        0.001369031369929
        0.000000000000000
        0.000000000000000
        0.000000000000000
       -0.000215212721006
        0.000636420510186
        0.003031327252665
        0.004210650384701
        0.002389220025598
        0.000707147707231
        0.000000000000000
        0.000000000000000
        0.000000000000000
        0.000000000000000
        0.000310563379082
        0.000912503719953
        0.001132484603406
        0.000651958257771
        0.000000000000000
        0.000000000000000
        0.000000000000000
        0.000000000000000
        0.000000000000000
        0.000000000000000
        0.000000000000000
        0.000000000000000
        0.000000000000000
        0.000000000000000
        0.000000000000000
        0.000000000000000
        0.000000000000000
        0.000000000000000
        0.000000000000000
        0.000000000000000
        0.000000000000000
        0.000000000000000
        0.000000000000000
        0.000000000000000
        0.000000000000000
        0.000000000000000
        0.000000000000000
       -0.000264602511055
       -0.000215636878054
        0.000000000000000
        0.000000000000000
        0.000000000000000
        0.000000000000000
        0.000000000000000
        0.000000000000000
       -0.000503210370476
       -0.000828200542418
       -0.000559381392459
       -0.000085583452067
        0.000000000000000
        0.000000000000000
        0.000000000000000
        0.000000000000000
       -0.000310303174393
       -0.000913953483483
       -0.001299505017047
       -0.000592325863904
        0.000322530761699
        0.000406487338054
        0.000000000000000
        0.000000000000000
        0.000000000000000
       -0.000291824141062
       -0.000778225115299
       -0.000855119598483
        0.000271270719082
        0.001273300054231
        0.000979452752220
        0.000351805405285
        0.000000000000000
        0.000000000000000
        0.000000000000000
       -0.000294171778848
       -0.000056053860001
        0.000989769656046
        0.001651432407655
        0.001100102751090
        0.000368702125197
        0.000000000000000
        0.000000000000000
        0.000000000000000
        0.000000000000000
        0.000181734970939
        0.000726356770103
        0.000992831982941
        0.000592544093014
        0.000000000000000
        0.000000000000000
        0.000000000000000
        0.000000000000000
        0.000000000000000
        0.000000000000000
        0.000256935323096
        0.000308657996428
        0.000000000000000
        0.000000000000000
        0.000000000000000
        0.000000000000000
        0.000000000000000
        0.000000000000000
        0.000000000000000
        0.000000000000000
        0.000000000000000
        0.000000000000000
        0.000000000000000
        0.000000000000000
        0.000000000000000
        0.000000000000000
        0.000000000000000
        0.000000000000000
        0.000000000000000
        0.000000000000000
        0.000000000000000
        0.000000000000000
        0.000000000000000
        0.000000000000000
        0.000000000000000
        0.000000000000000
        0.000000000000000
        0.000000000000000
        0.000000000000000
        0.000000000000000
        0.000000000000000
        0.000000000000000
        0.000000000000000
        0.000000000000000
        0.000000000000000
        0.000000000000000
        0.000000000000000
        0.000000000000000
        0.000000000000000
        0.000000000000000
        0.000000000000000
        0.000000000000000
        0.000000000000000
        0.000000000000000
       -0.000146922111407
       -0.000072567637532
        0.000000000000000
        0.000000000000000
        0.000000000000000
        0.000000000000000
        0.000000000000000
        0.000000000000000
        0.000000000000000
       -0.000097820989055
        0.000046802568259
        0.000163053831137
        0.000000000000000
        0.000000000000000
        0.000000000000000
        0.000000000000000
        0.000000000000000
        0.000000000000000
        0.000000000000000
        0.000135345722827
        0.000203770748256
        0.000000000000000
        0.000000000000000
        0.000000000000000
        0.000000000000000
        0.000000000000000
        0.000000000000000
        0.000000000000000
        0.000000000000000
        0.000000000000000
        0.000000000000000
        0.000000000000000
        0.000000000000000
        0.000000000000000
        0.000000000000000
        0.000000000000000
        0.000000000000000
        0.000000000000000
        0.000000000000000
        0.000000000000000
        0.000000000000000
        0.000000000000000
        0.000000000000000
        0.000000000000000
        0.000000000000000
        0.000000000000000
        0.000000000000000
        0.000000000000000
        0.000000000000000
        0.000000000000000
        0.000000000000000
END_DATAGRID_3D
END_BLOCK_DATAGRID_3D
