ATOMS
         C    7.558905    7.558905    7.558905
         H    8.755769    8.755769    8.755769
         H    6.362040    6.362040    8.755769
         H    8.755769    6.362040    6.362040
         H    6.362040    8.755769    6.362040
BEGIN_BLOCK_DATAGRID_3D
units: coords = b, function = sqrt(b^-3)
BEGIN_DATAGRID_3D_function
      9      9      9
0.0 0.0 0.0
   15.117809    0.000000    0.000000
    0.000000   15.117809    0.000000
    0.000000    0.000000   15.117809
        0.000000000000000
        0.000000000000000
        0.000000000000000
        0.000000000000000
        0.000000000000000
        0.000000000000000
        0.000000000000000
        0.000000000000000
        0.000000000000000
        0.000000000000000
        0.000000000000000
        0.000000000000000
        0.000000000000000
        0.000000000000000
        0.000000000000000
        0.000000000000000
        0.000000000000000
        0.000000000000000
        0.000000000000000
        0.000000000000000
        0.000000000000000
        0.000000000000000
        0.000000000000000
        0.000000000000000
        0.000000000000000
        0.000000000000000
        0.000000000000000
        0.000000000000000
        0.000000000000000
        0.000000000000000
        0.000000000000000
       -0.001174703903311
       -0.001135832169299
        0.000000000000000
        0.000000000000000
        0.000000000000000
        0.000000000000000
        0.000000000000000
        0.000000000000000
       -0.000703612357744
       -0.001370097418547
       -0.001134253472861
        0.000000000000000
        0.000000000000000
        0.000000000000000
        0.000000000000000
        0.000000000000000
        0.000000000000000
       -0.000431022724992
       -0.000663388653659
        0.000000000000000
        0.000000000000000
        0.000000000000000
        0.000000000000000
        0.000000000000000
        0.000000000000000
        0.000000000000000
        0.000000000000000
        0.000000000000000
        0.000000000000000
        0.000000000000000
        0.000000000000000
        0.000000000000000
        0.000000000000000
        0.000000000000000
        0.000000000000000
        0.000000000000000
        0.000000000000000
        0.000000000000000
        0.000000000000000
        0.000000000000000
        0.000000000000000
        0.000000000000000
        0.000000000000000
        0.000000000000000
        0.000000000000000
        0.000000000000000
        0.000000000000000
        0.000000000000000
        0.000000000000000
        0.000000000000000
        0.000000000000000
        0.000000000000000
        0.000000000000000
        0.000000000000000
        0.000000000000000
        0.000000000000000
        0.000000000000000
        0.000000000000000
        0.000000000000000
        0.000000000000000
        0.000000000000000
        0.000000000000000
        0.000000000000000
       -0.001230654850440
       -0.001235531981843
        0.000000000000000
        0.000000000000000
        0.000000000000000
        0.000000000000000
        0.000000000000000
        0.000000000000000
       -0.002101352294733
       -0.004158774768222
       -0.004152821723954
       -0.002098261360248
        0.000000000000000
        0.000000000000000
        0.000000000000000
        0.000000000000000
       -0.001126924021108
       -0.004142181894215
       -0.007900111276128
       -0.007701446236882
       -0.004002971483656
       -0.001153083551215
        0.000000000000000
        0.000000000000000
       -0.000107301804374
       -0.001096266368736
       -0.004167616660442
       -0.007950481283389
       -0.007479374260931
       -0.003794052322312
       -0.001098246575705
        0.000000000000000
        0.000000000000000
        0.000024428046919
       -0.000295787962765
       -0.001767512956642
       -0.003750110781234
       -0.003561466852390
       -0.001768197794023
        0.000000000000000
        0.000000000000000
        0.000000000000000
        0.000000000000000
        0.000104625827716
       -0.000149213698472
       -0.000736714421435
       -0.000795995052311
        0.000000000000000
        0.000000000000000
        0.000000000000000
        0.000000000000000
        0.000000000000000
        0.000000000000000
        0.000104562169065
        0.000022583543166
        0.000000000000000
        0.000000000000000
        0.000000000000000
        0.000000000000000
        0.000000000000000
        0.000000000000000
        0.000000000000000
        0.000000000000000
        0.000000000000000
        0.000000000000000
        0.000000000000000
        0.000000000000000
        0.000000000000000
        0.000000000000000
        0.000000000000000
        0.000000000000000
        0.000000000000000
        0.000000000000000
        0.000000000000000
        0.000000000000000
        0.000000000000000
        0.000000000000000
        0.000000000000000
        0.000000000000000
        0.000000000000000
       -0.002035312258763
       -0.004064338103894
       -0.004082730077904
       -0.002068748651353
        0.000000000000000
        0.000000000000000
        0.000000000000000
        0.000000000000000
       -0.001805142387920
       -0.007372266024069
       -0.015290436251695
       -0.015533366664953
       -0.007569556698866
       -0.001994338156364
        0.000000000000000
        0.000000000000000
       -0.000244787859493
       -0.003117052283307
       -0.014579375967053
       -0.035085522818907
       -0.035252284364951
       -0.014856806735023
       -0.003757618268948
        0.000000000000000
        0.000000000000000
        0.000166696459670
       -0.001772446952221
       -0.013419433581334
       -0.036404283275511
       -0.032380446649899
       -0.013490325549745
       -0.003465326589001
        0.000000000000000
        0.000000000000000
        0.000643039856948
        0.001208412491540
       -0.001353835130144
       -0.010729905065359
       -0.011395840291204
       -0.005641774637450
       -0.001539199216207
        0.000000000000000
        0.000000000000000
        0.000500513891898
        0.001446211872618
        0.001874058894355
        0.000007863477802
       -0.001396183941636
       -0.000985775518984
        0.000000000000000
        0.000000000000000
        0.000000000000000
        0.000000000000000
        0.000572689448414
        0.000960497138159
        0.000755504604401
        0.000245902098511
        0.000000000000000
        0.000000000000000
        0.000000000000000
        0.000000000000000
        0.000000000000000
        0.000000000000000
        0.000000000000000
        0.000000000000000
        0.000000000000000
        0.000000000000000
        0.000000000000000
        0.000000000000000
        0.000000000000000
        0.000000000000000
        0.000000000000000
        0.000000000000000
       -0.001092567017680
       -0.001071170949959
        0.000000000000000
        0.000000000000000
        0.000000000000000
        0.000000000000000
        0.000000000000000
       -0.000981725123893
       -0.003800253963447
       -0.007442259284982
       -0.007378385002635
       -0.003873462778804
       -0.001120519822938
        0.000000000000000
        0.000000000000000
       -0.000165619604387
       -0.002771847130902
       -0.013677170703060
       -0.033782240842223
       -0.034445827660385
       -0.014585873360398
       -0.003698194788018
        0.000000000000000
        0.000000000000000
        0.000422308636369
       -0.002541494493539
       -0.027512501490445
       -0.099030624853732
       -0.104705587876244
       -0.032451565818753
       -0.006572553127812
       -0.000909779237522
        0.000395268280708
        0.001953155733341
        0.003990692307254
       -0.014304095814815
       -0.096567048051836
       -0.086385769918998
       -0.027866675937034
       -0.005888092925480
       -0.000848156287830
        0.000434754159459
        0.002557935878810
        0.009434223665098
        0.019970044460853
       -0.001712648346183
       -0.015056284549753
       -0.008279597910335
       -0.002378636310261
        0.000000000000000
        0.000000000000000
        0.001587500112621
        0.005505123434745
        0.011410234488194
        0.009862862245532
        0.002835078680727
       -0.000207478050723
       -0.000295387187353
        0.000000000000000
        0.000000000000000
        0.000541988538535
        0.001758501943204
        0.003346861268439
        0.003484478887242
        0.001830984520005
        0.000517699293486
        0.000000000000000
        0.000000000000000
        0.000000000000000
        0.000000000000000
        0.000000000000000
        0.000592258602283
        0.000635295193169
        0.000000000000000
        0.000000000000000
        0.000000000000000
        0.000000000000000
        0.000000000000000
        0.000000000000000
        0.000000000000000
       -0.000583135243908
       -0.001206973718275
       -0.001035870623071
        0.000000000000000
        0.000000000000000
        0.000000000000000
        0.000000000000000
       -0.000016014949164
       -0.000752965825706
       -0.003406404810704
       -0.007003898844178
       -0.006853372827410
       -0.003554287685021
       -0.001045557304755
        0.000000000000000
        0.000000000000000
        0.000415606218793
       -0.000675408062650
       -0.010357976157671
       -0.032069757650145
       -0.029985938599338
       -0.012767030088676
       -0.003319969651000
        0.000000000000000
        0.000433623461835
        0.002256675799293
        0.005748916359056
       -0.007436931898784
       -0.085068372758711
       -0.081253548622881
       -0.026775389168858
       -0.005719890828789
       -0.000831914368684
        0.000810357798412
        0.004697887549864
        0.021478447433760
        0.056962840539762
        0.000018150849560
       -0.056821285894500
       -0.021412817010500
       -0.004668534639389
       -0.000803666409902
        0.000653403963671
        0.004627201090050
        0.021288515051340
        0.066876862267165
        0.085107505305604
        0.021969400664491
       -0.000169630481362
       -0.001121511188187
       -0.000246453927248
        0.000000000000000
        0.002476888167302
        0.009697150417305
        0.024472501398533
        0.032079968450000
        0.015910913556893
        0.003781653207515
        0.000444819432962
        0.000000000000000
        0.000000000000000
        0.000729966636312
        0.002706671647692
        0.005742032033201
        0.007005422705338
        0.004524729035960
        0.001609209306628
        0.000335859464404
        0.000000000000000
        0.000000000000000
        0.000000000000000
        0.000000000000000
        0.000853173330624
        0.001207189105586
        0.000766464338726
        0.000000000000000
        0.000000000000000
        0.000000000000000
        0.000000000000000
        0.000000000000000
        0.000000000000000
       -0.000309036725040
       -0.000526666581580
        0.000000000000000
        0.000000000000000
        0.000000000000000
        0.000000000000000
        0.000000000000000
        0.000126829684767
        0.000087870453864
       -0.000962007912835
       -0.002820855221169
       -0.002986454006287
       -0.001568664005012
        0.000000000000000
        0.000000000000000
        0.000000000000000
        0.000956686057092
        0.002567713159891
        0.002204681920511
       -0.006577532567673
       -0.009206373977284
       -0.004944222285712
       -0.001405677923834
        0.000000000000000
        0.000492136112919
        0.003040710471345
        0.012186133386870
        0.030081660929020
        0.010286556545548
       -0.009989949763133
       -0.006992196878947
       -0.002145401653158
        0.000000000000000
        0.000691759144798
        0.004930721156002
        0.023046739103142
        0.073744026183196
        0.096606180598727
        0.027101621960607
        0.000921656286813
       -0.000953309091496
       -0.000230212008102
        0.000000000000000
        0.004128939474042
        0.017872604716087
        0.052630326530675
        0.090510639526488
        0.054782955376983
        0.010904697239623
        0.001008727785200
       -0.000009723578031
        0.000000000000000
        0.001876746427804
        0.007945524934936
        0.020068630756892
        0.030511003486328
        0.020867265829088
        0.006545082513711
        0.001169323378998
        0.000000000000000
        0.000000000000000
        0.000000000000000
        0.002037036087258
        0.004959636524667
        0.006780999281294
        0.005000228225236
        0.002035206056070
        0.000455691221548
        0.000000000000000
        0.000000000000000
        0.000000000000000
        0.000000000000000
        0.000000000000000
        0.000984173510335
        0.000788572962788
        0.000000000000000
        0.000000000000000
        0.000000000000000
        0.000000000000000
        0.000000000000000
        0.000000000000000
        0.000000000000000
        0.000000000000000
        0.000000000000000
        0.000000000000000
        0.000000000000000
        0.000000000000000
        0.000000000000000
        0.000000000000000
        0.000313277450435
        0.000293757204483
       -0.000248243127139
       -0.000517356840566
        0.000000000000000
        0.000000000000000
        0.000000000000000
        0.000000000000000
        0.000679713073919
        0.002178679338438
        0.003504068945320
        0.001827746885252
       -0.000353625155958
       -0.000654220290723
        0.000000000000000
        0.000000000000000
        0.000000000000000
        0.001901146312765
        0.006864424103096
        0.014968751538850
        0.014015234743217
        0.005024544994647
        0.000490074301015
       -0.000161865894980
        0.000000000000000
        0.000000000000000
        0.002725797926426
        0.010794189306876
        0.027533958822195
        0.036414494075366
        0.018305421607455
        0.004504948668584
        0.000590176370962
        0.000000000000000
        0.000000000000000
        0.001955914682911
        0.008290730087340
        0.020970836020885
        0.031814285463013
        0.021673722533654
        0.006816015888336
        0.001228746859928
        0.000000000000000
        0.000000000000000
        0.000000000000000
        0.003451852566494
        0.009128372554151
        0.013459721746334
        0.010169753299116
        0.003959883510185
        0.000821090455536
        0.000000000000000
        0.000000000000000
        0.000000000000000
        0.000000000000000
        0.002307673216755
        0.003558155390732
        0.002831894451032
        0.001186361894365
        0.000000000000000
        0.000000000000000
        0.000000000000000
        0.000000000000000
        0.000000000000000
        0.000000000000000
        0.000000000000000
        0.000000000000000
        0.000000000000000
        0.000000000000000
        0.000000000000000
        0.000000000000000
        0.000000000000000
        0.000000000000000
        0.000000000000000
        0.000000000000000
        0.000000000000000
        0.000000000000000
        0.000000000000000
        0.000000000000000
        0.000000000000000
        0.000000000000000
        0.000000000000000
        0.000239449644695
        0.000166504554092
        0.000000000000000
        0.000000000000000
        0.000000000000000
        0.000000000000000
        0.000000000000000
        0.000000000000000
        0.000781341071134
        0.001403468041113
        0.001243975898696
        0.000524540310256
        0.000000000000000
        0.000000000000000
        0.000000000000000
        0.000000000000000
        0.000644390176382
        0.002142160359833
        0.004152366312247
        0.004413734447307
        0.002405997366108
        0.000717233082497
        0.000000000000000
        0.000000000000000
        0.000000000000000
        0.000821253491522
        0.003049972190722
        0.006503243882939
        0.007952005144549
        0.005150730469481
        0.001848973943919
        0.000388548735353
        0.000000000000000
        0.000000000000000
        0.000000000000000
        0.002182234984473
        0.005301564455435
        0.007238851272440
        0.005323289459482
        0.002164714760922
        0.000488254949825
        0.000000000000000
        0.000000000000000
        0.000000000000000
        0.000000000000000
        0.002373713252724
        0.003652592055060
        0.002901986097083
        0.001215874603260
        0.000000000000000
        0.000000000000000
        0.000000000000000
        0.000000000000000
        0.000000000000000
        0.000000000000000
        0.001041847790657
        0.000892249610709
        0.000000000000000
        0.000000000000000
        0.000000000000000
        0.000000000000000
        0.000000000000000
        0.000000000000000
        0.000000000000000
        0.000000000000000
        0.000000000000000
        0.000000000000000
        0.000000000000000
        0.000000000000000
        0.000000000000000
        0.000000000000000
        0.000000000000000
        0.000000000000000
        0.000000000000000
        0.000000000000000
        0.000000000000000
        0.000000000000000
        0.000000000000000
        0.000000000000000
        0.000000000000000
        0.000000000000000
        0.000000000000000
        0.000000000000000
        0.000000000000000
        0.000000000000000
        0.000000000000000
        0.000000000000000
        0.000000000000000
        0.000000000000000
        0.000000000000000
        0.000000000000000
        0.000000000000000
        0.000000000000000
        0.000000000000000
        0.000000000000000
        0.000000000000000
        0.000000000000000
        0.000000000000000
        0.000000000000000
        0.000714244602235
        0.000772017265247
        0.000000000000000
        0.000000000000000
        0.000000000000000
        0.000000000000000
        0.000000000000000
        0.000000000000000
        0.000000000000000
        0.000973650444460
        0.001370312805858
        0.000864847188516
        0.000000000000000
        0.000000000000000
        0.000000000000000
        0.000000000000000
        0.000000000000000
        0.000000000000000
        0.000000000000000
        0.001066310395966
        0.000853234182128
        0.000000000000000
        0.000000000000000
        0.000000000000000
        0.000000000000000
        0.000000000000000
        0.000000000000000
        0.000000000000000
        0.000000000000000
        0.000000000000000
        0.000000000000000
        0.000000000000000
        0.000000000000000
        0.000000000000000
        0.000000000000000
        0.000000000000000
        0.000000000000000
        0.000000000000000
        0.000000000000000
        0.000000000000000
        0.000000000000000
        0.000000000000000
        0.000000000000000
        0.000000000000000
        0.000000000000000
        0.000000000000000
        0.000000000000000
        0.000000000000000
        0.000000000000000
        0.000000000000000
        0.000000000000000
END_DATAGRID_3D
END_BLOCK_DATAGRID_3D
