ATOMS
         C    7.558905    7.558905    7.558905
         H    8.755769    8.755769    8.755769
         H    6.362040    6.362040    8.755769
         H    8.755769    6.362040    6.362040
         H    6.362040    8.755769    6.362040
BEGIN_BLOCK_DATAGRID_3D
units: coords = b, function = 1/hbar/H*b^-2
BEGIN_DATAGRID_3D_function
      9      9      9
0.0 0.0 0.0
   15.117809    0.000000    0.000000
    0.000000   15.117809    0.000000
    0.000000    0.000000   15.117809
        0.000000000000000
        0.000000000000000
        0.000000000000000
        0.000000000000000
        0.000000000000000
        0.000000000000000
        0.000000000000000
        0.000000000000000
        0.000000000000000
        0.000000000000000
        0.000000000000000
        0.000000000000000
        0.000000000000000
        0.000000000000000
        0.000000000000000
        0.000000000000000
        0.000000000000000
        0.000000000000000
        0.000000000000000
        0.000000000000000
        0.000000000000000
        0.000000000000000
        0.000000000000000
        0.000000000000000
        0.000000000000000
        0.000000000000000
        0.000000000000000
        0.000000000000000
        0.000000000000000
        0.000000000000000
        0.000000000000000
       -0.000000001446113
       -0.000000000082267
        0.000000000000000
        0.000000000000000
        0.000000000000000
        0.000000000000000
        0.000000000000000
        0.000000000000000
       -0.000000000080649
       -0.000000004298926
       -0.000000000082267
        0.000000000000000
        0.000000000000000
        0.000000000000000
        0.000000000000000
        0.000000000000000
        0.000000000000000
       -0.000000000080649
       -0.000000001446353
        0.000000000000000
        0.000000000000000
        0.000000000000000
        0.000000000000000
        0.000000000000000
        0.000000000000000
        0.000000000000000
        0.000000000000000
        0.000000000000000
        0.000000000000000
        0.000000000000000
        0.000000000000000
        0.000000000000000
        0.000000000000000
        0.000000000000000
        0.000000000000000
        0.000000000000000
        0.000000000000000
        0.000000000000000
        0.000000000000000
        0.000000000000000
        0.000000000000000
        0.000000000000000
        0.000000000000000
        0.000000000000000
        0.000000000000000
        0.000000000000000
        0.000000000000000
        0.000000000000000
        0.000000000000000
        0.000000000000000
        0.000000000000000
        0.000000000000000
        0.000000000000000
        0.000000000000000
        0.000000000000000
        0.000000000000000
        0.000000000000000
        0.000000000000000
        0.000000000000000
        0.000000000000000
        0.000000000000000
        0.000000000000000
        0.000000000000000
       -0.000000002145023
        0.000000001919313
        0.000000000000000
        0.000000000000000
        0.000000000000000
        0.000000000000000
        0.000000000000000
        0.000000000000000
       -0.000000004770318
       -0.000000004578471
        0.000000003161311
        0.000000002922883
        0.000000000000000
        0.000000000000000
        0.000000000000000
        0.000000000000000
       -0.000000003387553
       -0.000000008893114
        0.000000000769747
       -0.000000000096393
        0.000000004172233
       -0.000000000056555
        0.000000000000000
        0.000000000000000
       -0.000000000056828
       -0.000000005917498
        0.000000001598493
       -0.000000000814489
        0.000000001616371
       -0.000000005933301
       -0.000000000056555
        0.000000000000000
        0.000000000000000
       -0.000000000056828
        0.000000004145999
       -0.000000000105691
        0.000000000754017
       -0.000000008909452
       -0.000000003403341
        0.000000000000000
        0.000000000000000
        0.000000000000000
        0.000000000000000
        0.000000002911492
        0.000000003159683
       -0.000000004577375
       -0.000000004785147
        0.000000000000000
        0.000000000000000
        0.000000000000000
        0.000000000000000
        0.000000000000000
        0.000000000000000
        0.000000001919343
       -0.000000002143543
        0.000000000000000
        0.000000000000000
        0.000000000000000
        0.000000000000000
        0.000000000000000
        0.000000000000000
        0.000000000000000
        0.000000000000000
        0.000000000000000
        0.000000000000000
        0.000000000000000
        0.000000000000000
        0.000000000000000
        0.000000000000000
        0.000000000000000
        0.000000000000000
        0.000000000000000
        0.000000000000000
        0.000000000000000
        0.000000000000000
        0.000000000000000
        0.000000000000000
        0.000000000000000
        0.000000000000000
        0.000000000000000
       -0.000000006856429
       -0.000000003456341
        0.000000001915838
        0.000000005007824
        0.000000000000000
        0.000000000000000
        0.000000000000000
        0.000000000000000
       -0.000000010001078
        0.000000007701429
        0.000000047288106
       -0.000000039698277
       -0.000000024806573
        0.000000002306604
        0.000000000000000
        0.000000000000000
       -0.000000002501679
        0.000000002858609
        0.000000127646225
       -0.000000077699906
       -0.000000270869545
       -0.000000020837874
        0.000000002289615
        0.000000000000000
        0.000000000000000
       -0.000000005216035
        0.000000050538526
       -0.000000099454589
       -0.000000285721622
       -0.000000101172903
        0.000000051045380
       -0.000000005231211
        0.000000000000000
        0.000000000000000
        0.000000002249932
       -0.000000020516428
       -0.000000269321133
       -0.000000079415714
        0.000000128353955
        0.000000003087052
       -0.000000002523882
        0.000000000000000
        0.000000000000000
        0.000000002293466
       -0.000000024534479
       -0.000000040091355
        0.000000047162231
        0.000000007946024
       -0.000000010059672
        0.000000000000000
        0.000000000000000
        0.000000000000000
        0.000000000000000
        0.000000004982069
        0.000000001918614
       -0.000000003449326
       -0.000000006887594
        0.000000000000000
        0.000000000000000
        0.000000000000000
        0.000000000000000
        0.000000000000000
        0.000000000000000
        0.000000000000000
        0.000000000000000
        0.000000000000000
        0.000000000000000
        0.000000000000000
        0.000000000000000
        0.000000000000000
        0.000000000000000
        0.000000000000000
        0.000000000000000
       -0.000000004029997
        0.000000002593902
        0.000000000000000
        0.000000000000000
        0.000000000000000
        0.000000000000000
        0.000000000000000
       -0.000000006167450
       -0.000000015055824
       -0.000000032063778
        0.000000030246485
        0.000000011501512
        0.000000000214797
        0.000000000000000
        0.000000000000000
       -0.000000002292010
       -0.000000000761982
        0.000000462051922
        0.000000697320884
       -0.000000729944771
       -0.000000399313116
        0.000000014437836
        0.000000000000000
        0.000000000000000
       -0.000000022317323
        0.000000435085630
        0.000001166369376
       -0.000002166370180
       -0.000003826758819
       -0.000000418981767
        0.000000016558642
       -0.000000000165834
       -0.000000000166429
       -0.000000022651161
        0.000000565972275
       -0.000001894268164
       -0.000005092694744
       -0.000001912585929
        0.000000569824814
       -0.000000022567580
       -0.000000000165834
       -0.000000000166429
        0.000000016469971
       -0.000000414121341
       -0.000003805780219
       -0.000002186274186
        0.000001171483798
        0.000000439386315
       -0.000000022367436
        0.000000000000000
        0.000000000000000
        0.000000014407840
       -0.000000395747841
       -0.000000731062711
        0.000000695702887
        0.000000465345645
       -0.000000000384937
       -0.000000002331040
        0.000000000000000
        0.000000000000000
        0.000000000206886
        0.000000011433279
        0.000000030218298
       -0.000000032013253
       -0.000000015091749
       -0.000000006214897
        0.000000000000000
        0.000000000000000
        0.000000000000000
        0.000000000000000
        0.000000000000000
        0.000000002600512
       -0.000000004022026
        0.000000000000000
        0.000000000000000
        0.000000000000000
        0.000000000000000
        0.000000000000000
        0.000000000000000
        0.000000000000000
       -0.000000003502041
       -0.000000000008920
        0.000000003506710
        0.000000000000000
        0.000000000000000
        0.000000000000000
        0.000000000000000
        0.000000000025380
       -0.000000011345229
       -0.000000054994672
       -0.000000000069032
        0.000000055072894
        0.000000011433864
       -0.000000000018952
        0.000000000000000
        0.000000000000000
       -0.000000015025620
        0.000000286557480
        0.000001703020255
        0.000000002402482
       -0.000001708986442
       -0.000000290130341
        0.000000015129642
        0.000000000000000
       -0.000000001323819
       -0.000000033278318
        0.000001359228329
        0.000003335211100
        0.000000041586199
       -0.000003369511003
       -0.000001370503294
        0.000000033013530
        0.000000001352590
        0.000000000000000
       -0.000000000000000
       -0.000000000000000
       -0.000000000000000
       -0.000000000000000
       -0.000000000000000
       -0.000000000000000
        0.000000000000000
        0.000000000000000
        0.000000001323819
        0.000000033278318
       -0.000001359228329
       -0.000003335211100
       -0.000000041586199
        0.000003369511003
        0.000001370503294
       -0.000000033013530
       -0.000000001352590
        0.000000000000000
        0.000000015025620
       -0.000000286557480
       -0.000001703020255
       -0.000000002402482
        0.000001708986442
        0.000000290130341
       -0.000000015129642
        0.000000000000000
        0.000000000000000
       -0.000000000025380
        0.000000011345229
        0.000000054994672
        0.000000000069032
       -0.000000055072894
       -0.000000011433864
        0.000000000018952
        0.000000000000000
        0.000000000000000
        0.000000000000000
        0.000000000000000
        0.000000003502041
        0.000000000008920
       -0.000000003506710
        0.000000000000000
        0.000000000000000
        0.000000000000000
        0.000000000000000
        0.000000000000000
        0.000000000000000
       -0.000000002600512
        0.000000004022026
        0.000000000000000
        0.000000000000000
        0.000000000000000
        0.000000000000000
        0.000000000000000
       -0.000000000206886
       -0.000000011433279
       -0.000000030218298
        0.000000032013253
        0.000000015091749
        0.000000006214897
        0.000000000000000
        0.000000000000000
        0.000000000000000
       -0.000000014407840
        0.000000395747841
        0.000000731062711
       -0.000000695702887
       -0.000000465345645
        0.000000000384937
        0.000000002331040
        0.000000000000000
        0.000000000166429
       -0.000000016469971
        0.000000414121341
        0.000003805780219
        0.000002186274185
       -0.000001171483798
       -0.000000439386315
        0.000000022367436
        0.000000000000000
        0.000000000166429
        0.000000022651161
       -0.000000565972275
        0.000001894268164
        0.000005092694744
        0.000001912585929
       -0.000000569824814
        0.000000022567580
        0.000000000165834
        0.000000000000000
        0.000000022317323
       -0.000000435085630
       -0.000001166369376
        0.000002166370180
        0.000003826758819
        0.000000418981767
       -0.000000016558642
        0.000000000165834
        0.000000000000000
        0.000000002292010
        0.000000000761982
       -0.000000462051922
       -0.000000697320884
        0.000000729944771
        0.000000399313116
       -0.000000014437836
        0.000000000000000
        0.000000000000000
        0.000000000000000
        0.000000006167450
        0.000000015055824
        0.000000032063778
       -0.000000030246485
       -0.000000011501512
       -0.000000000214797
        0.000000000000000
        0.000000000000000
        0.000000000000000
        0.000000000000000
        0.000000000000000
        0.000000004029997
       -0.000000002593902
        0.000000000000000
        0.000000000000000
        0.000000000000000
        0.000000000000000
        0.000000000000000
        0.000000000000000
        0.000000000000000
        0.000000000000000
        0.000000000000000
        0.000000000000000
        0.000000000000000
        0.000000000000000
        0.000000000000000
        0.000000000000000
       -0.000000004982069
       -0.000000001918614
        0.000000003449326
        0.000000006887594
        0.000000000000000
        0.000000000000000
        0.000000000000000
        0.000000000000000
       -0.000000002293466
        0.000000024534479
        0.000000040091355
       -0.000000047162231
       -0.000000007946024
        0.000000010059672
        0.000000000000000
        0.000000000000000
        0.000000000000000
       -0.000000002249932
        0.000000020516428
        0.000000269321133
        0.000000079415714
       -0.000000128353955
       -0.000000003087052
        0.000000002523882
        0.000000000000000
        0.000000000000000
        0.000000005216035
       -0.000000050538526
        0.000000099454589
        0.000000285721622
        0.000000101172903
       -0.000000051045380
        0.000000005231211
        0.000000000000000
        0.000000000000000
        0.000000002501679
       -0.000000002858609
       -0.000000127646225
        0.000000077699906
        0.000000270869545
        0.000000020837874
       -0.000000002289615
        0.000000000000000
        0.000000000000000
        0.000000000000000
        0.000000010001078
       -0.000000007701429
       -0.000000047288106
        0.000000039698277
        0.000000024806573
       -0.000000002306604
        0.000000000000000
        0.000000000000000
        0.000000000000000
        0.000000000000000
        0.000000006856429
        0.000000003456341
       -0.000000001915838
       -0.000000005007824
        0.000000000000000
        0.000000000000000
        0.000000000000000
        0.000000000000000
        0.000000000000000
        0.000000000000000
        0.000000000000000
        0.000000000000000
        0.000000000000000
        0.000000000000000
        0.000000000000000
        0.000000000000000
        0.000000000000000
        0.000000000000000
        0.000000000000000
        0.000000000000000
        0.000000000000000
        0.000000000000000
        0.000000000000000
        0.000000000000000
        0.000000000000000
        0.000000000000000
        0.000000000000000
       -0.000000001919343
        0.000000002143543
        0.000000000000000
        0.000000000000000
        0.000000000000000
        0.000000000000000
        0.000000000000000
        0.000000000000000
       -0.000000002911492
       -0.000000003159683
        0.000000004577375
        0.000000004785147
        0.000000000000000
        0.000000000000000
        0.000000000000000
        0.000000000000000
        0.000000000056828
       -0.000000004145999
        0.000000000105691
       -0.000000000754017
        0.000000008909452
        0.000000003403341
        0.000000000000000
        0.000000000000000
        0.000000000000000
        0.000000000056828
        0.000000005917498
       -0.000000001598493
        0.000000000814489
       -0.000000001616371
        0.000000005933301
        0.000000000056555
        0.000000000000000
        0.000000000000000
        0.000000000000000
        0.000000003387553
        0.000000008893114
       -0.000000000769747
        0.000000000096393
       -0.000000004172233
        0.000000000056555
        0.000000000000000
        0.000000000000000
        0.000000000000000
        0.000000000000000
        0.000000004770318
        0.000000004578471
       -0.000000003161311
       -0.000000002922883
        0.000000000000000
        0.000000000000000
        0.000000000000000
        0.000000000000000
        0.000000000000000
        0.000000000000000
        0.000000002145023
       -0.000000001919313
        0.000000000000000
        0.000000000000000
        0.000000000000000
        0.000000000000000
        0.000000000000000
        0.000000000000000
        0.000000000000000
        0.000000000000000
        0.000000000000000
        0.000000000000000
        0.000000000000000
        0.000000000000000
        0.000000000000000
        0.000000000000000
        0.000000000000000
        0.000000000000000
        0.000000000000000
        0.000000000000000
        0.000000000000000
        0.000000000000000
        0.000000000000000
        0.000000000000000
        0.000000000000000
        0.000000000000000
        0.000000000000000
        0.000000000000000
        0.000000000000000
        0.000000000000000
        0.000000000000000
        0.000000000000000
        0.000000000000000
        0.000000000000000
        0.000000000000000
        0.000000000000000
        0.000000000000000
        0.000000000000000
        0.000000000000000
        0.000000000000000
        0.000000000000000
        0.000000000000000
        0.000000000000000
        0.000000000000000
        0.000000000080649
        0.000000001446353
        0.000000000000000
        0.000000000000000
        0.000000000000000
        0.000000000000000
        0.000000000000000
        0.000000000000000
        0.000000000000000
        0.000000000080649
        0.000000004298926
        0.000000000082267
        0.000000000000000
        0.000000000000000
        0.000000000000000
        0.000000000000000
        0.000000000000000
        0.000000000000000
        0.000000000000000
        0.000000001446113
        0.000000000082267
        0.000000000000000
        0.000000000000000
        0.000000000000000
        0.000000000000000
        0.000000000000000
        0.000000000000000
        0.000000000000000
        0.000000000000000
        0.000000000000000
        0.000000000000000
        0.000000000000000
        0.000000000000000
        0.000000000000000
        0.000000000000000
        0.000000000000000
        0.000000000000000
        0.000000000000000
        0.000000000000000
        0.000000000000000
        0.000000000000000
        0.000000000000000
        0.000000000000000
        0.000000000000000
        0.000000000000000
        0.000000000000000
        0.000000000000000
        0.000000000000000
        0.000000000000000
        0.000000000000000
        0.000000000000000
END_DATAGRID_3D
END_BLOCK_DATAGRID_3D
