ATOMS
         C    7.558905    7.558905    7.558905
         H    8.755769    8.755769    8.755769
         H    6.362040    6.362040    8.755769
         H    8.755769    6.362040    6.362040
         H    6.362040    8.755769    6.362040
BEGIN_BLOCK_DATAGRID_3D
units: coords = b, function = sqrt(b^-3)
BEGIN_DATAGRID_3D_function
      9      9      9
0.0 0.0 0.0
   15.117809    0.000000    0.000000
    0.000000   15.117809    0.000000
    0.000000    0.000000   15.117809
        0.000000000000000
        0.000000000000000
        0.000000000000000
        0.000000000000000
        0.000000000000000
        0.000000000000000
        0.000000000000000
        0.000000000000000
        0.000000000000000
        0.000000000000000
        0.000000000000000
        0.000000000000000
        0.000000000000000
        0.000000000000000
        0.000000000000000
        0.000000000000000
        0.000000000000000
        0.000000000000000
        0.000000000000000
        0.000000000000000
        0.000000000000000
        0.000000000000000
        0.000000000000000
        0.000000000000000
        0.000000000000000
        0.000000000000000
        0.000000000000000
        0.000000000000000
        0.000000000000000
        0.000000000000000
        0.000000000000000
       -0.001027655196321
       -0.000993047159557
        0.000000000000000
        0.000000000000000
        0.000000000000000
        0.000000000000000
        0.000000000000000
        0.000000000000000
       -0.000616517512958
       -0.001199206613842
       -0.000991781657420
        0.000000000000000
        0.000000000000000
        0.000000000000000
        0.000000000000000
        0.000000000000000
        0.000000000000000
       -0.000377732054402
       -0.000581111474852
        0.000000000000000
        0.000000000000000
        0.000000000000000
        0.000000000000000
        0.000000000000000
        0.000000000000000
        0.000000000000000
        0.000000000000000
        0.000000000000000
        0.000000000000000
        0.000000000000000
        0.000000000000000
        0.000000000000000
        0.000000000000000
        0.000000000000000
        0.000000000000000
        0.000000000000000
        0.000000000000000
        0.000000000000000
        0.000000000000000
        0.000000000000000
        0.000000000000000
        0.000000000000000
        0.000000000000000
        0.000000000000000
        0.000000000000000
        0.000000000000000
        0.000000000000000
        0.000000000000000
        0.000000000000000
        0.000000000000000
        0.000000000000000
        0.000000000000000
        0.000000000000000
        0.000000000000000
        0.000000000000000
        0.000000000000000
        0.000000000000000
        0.000000000000000
        0.000000000000000
        0.000000000000000
        0.000000000000000
        0.000000000000000
        0.000000000000000
       -0.001076565542258
       -0.001080040241220
        0.000000000000000
        0.000000000000000
        0.000000000000000
        0.000000000000000
        0.000000000000000
        0.000000000000000
       -0.001841267144372
       -0.003639492324904
       -0.003628895229511
       -0.001831042204790
        0.000000000000000
        0.000000000000000
        0.000000000000000
        0.000000000000000
       -0.000988987505082
       -0.003630374505885
       -0.006914132539553
       -0.006729776724007
       -0.003492364448771
       -0.001004499186083
        0.000000000000000
        0.000000000000000
       -0.000094246650754
       -0.000961993734948
       -0.003652551341157
       -0.006958656408359
       -0.006536233516188
       -0.003310071404656
       -0.000956773248490
        0.000000000000000
        0.000000000000000
        0.000021568677504
       -0.000259184788794
       -0.001548614594185
       -0.003282170403718
       -0.003112398820351
       -0.001543080164884
        0.000000000000000
        0.000000000000000
        0.000000000000000
        0.000000000000000
        0.000092095547355
       -0.000130311035646
       -0.000644525789321
       -0.000695825795846
        0.000000000000000
        0.000000000000000
        0.000000000000000
        0.000000000000000
        0.000000000000000
        0.000000000000000
        0.000091767793308
        0.000019879013921
        0.000000000000000
        0.000000000000000
        0.000000000000000
        0.000000000000000
        0.000000000000000
        0.000000000000000
        0.000000000000000
        0.000000000000000
        0.000000000000000
        0.000000000000000
        0.000000000000000
        0.000000000000000
        0.000000000000000
        0.000000000000000
        0.000000000000000
        0.000000000000000
        0.000000000000000
        0.000000000000000
        0.000000000000000
        0.000000000000000
        0.000000000000000
        0.000000000000000
        0.000000000000000
        0.000000000000000
        0.000000000000000
       -0.001783377143650
       -0.003556812947575
       -0.003567624636873
       -0.001805281656433
        0.000000000000000
        0.000000000000000
        0.000000000000000
        0.000000000000000
       -0.001584021444073
       -0.006459658866643
       -0.013380367669468
       -0.013574244868415
       -0.006606133887668
       -0.001737356767781
        0.000000000000000
        0.000000000000000
       -0.000214990430733
       -0.002734976587946
       -0.012768444367149
       -0.030698843682367
       -0.030812745361304
       -0.012972060837310
       -0.003273025653271
        0.000000000000000
        0.000000000000000
        0.000147003495897
       -0.001553559558474
       -0.011746393412169
       -0.031857094621104
       -0.028310338752288
       -0.011777800191878
       -0.003018261988701
        0.000000000000000
        0.000000000000000
        0.000566031489848
        0.001062029261102
       -0.001178927151497
       -0.009386465408269
       -0.009960593149006
       -0.004923490373202
       -0.001340890592803
        0.000000000000000
        0.000000000000000
        0.000440426059607
        0.001270821842044
        0.001645693406070
        0.000009528818369
       -0.001219092742711
       -0.000860086522666
        0.000000000000000
        0.000000000000000
        0.000000000000000
        0.000000000000000
        0.000503135169818
        0.000842843653142
        0.000662085549636
        0.000215325387150
        0.000000000000000
        0.000000000000000
        0.000000000000000
        0.000000000000000
        0.000000000000000
        0.000000000000000
        0.000000000000000
        0.000000000000000
        0.000000000000000
        0.000000000000000
        0.000000000000000
        0.000000000000000
        0.000000000000000
        0.000000000000000
        0.000000000000000
        0.000000000000000
       -0.000955785947000
       -0.000936499952186
        0.000000000000000
        0.000000000000000
        0.000000000000000
        0.000000000000000
        0.000000000000000
       -0.000861474460846
       -0.003330525662838
       -0.006513256529509
       -0.006447348912543
       -0.003379338076332
       -0.000976128023628
        0.000000000000000
        0.000000000000000
       -0.000145345498835
       -0.002431858633956
       -0.011977571077051
       -0.029557692411175
       -0.030107387774286
       -0.012735522126451
       -0.003221257961217
        0.000000000000000
        0.000000000000000
        0.000371690590970
       -0.002226688464318
       -0.024065214763960
       -0.086635642958299
       -0.091540366677523
       -0.028357628122255
       -0.005725825326346
       -0.000790389483840
        0.000348935665897
        0.001718370348913
        0.003505643553208
       -0.012471493287203
       -0.084502364568386
       -0.075543246020824
       -0.024352060843855
       -0.005128555352247
       -0.000737024528444
        0.000383416204173
        0.002250809310342
        0.008279170986745
        0.017528870798787
       -0.001471232589930
       -0.013153015673759
       -0.007228791615316
       -0.002071724724035
        0.000000000000000
        0.000000000000000
        0.001396918368522
        0.004834443329996
        0.010008234750010
        0.008642876337250
        0.002484284272191
       -0.000179636333689
       -0.000257266488907
        0.000000000000000
        0.000000000000000
        0.000476848119497
        0.001545086704453
        0.002936028061779
        0.003052139605508
        0.001601459592101
        0.000452139155971
        0.000000000000000
        0.000000000000000
        0.000000000000000
        0.000000000000000
        0.000000000000000
        0.000519260123694
        0.000556696409603
        0.000000000000000
        0.000000000000000
        0.000000000000000
        0.000000000000000
        0.000000000000000
        0.000000000000000
        0.000000000000000
       -0.000510906955839
       -0.001056357129947
       -0.000905728460347
        0.000000000000000
        0.000000000000000
        0.000000000000000
        0.000000000000000
       -0.000013943064123
       -0.000660420940361
       -0.002984952729673
       -0.006129765068035
       -0.005988915594964
       -0.003100800143974
       -0.000910858416463
        0.000000000000000
        0.000000000000000
        0.000366015397961
       -0.000590554643545
       -0.009062970614746
       -0.028061424105902
       -0.026215316301209
       -0.011146182585456
       -0.002891630590087
        0.000000000000000
        0.000382744462004
        0.001985446947363
        0.005047465272959
       -0.006454789090074
       -0.074432923435181
       -0.071050278168086
       -0.023398236914169
       -0.004982066952832
       -0.000722877215445
        0.000715184289892
        0.004132304525142
        0.018838613763102
        0.049966736464078
       -0.000058710804713
       -0.049657315066576
       -0.018713947812742
       -0.004067682276016
       -0.000697741839509
        0.000576048382269
        0.004071493951185
        0.018675936051331
        0.058615293803322
        0.074537566239741
        0.019261622883063
       -0.000141392684002
       -0.000977038311906
       -0.000213944984706
        0.000000000000000
        0.002179361528208
        0.008514217620162
        0.021453322441697
        0.028096276253886
        0.013924260378712
        0.003304226675658
        0.000387586324884
        0.000000000000000
        0.000000000000000
        0.000642126174707
        0.002377771214842
        0.005036087401187
        0.006134489123778
        0.003956236906615
        0.001404679727292
        0.000292671208068
        0.000000000000000
        0.000000000000000
        0.000000000000000
        0.000000000000000
        0.000747888006487
        0.001056958803197
        0.000670395339091
        0.000000000000000
        0.000000000000000
        0.000000000000000
        0.000000000000000
        0.000000000000000
        0.000000000000000
       -0.000270781659799
       -0.000461313590417
        0.000000000000000
        0.000000000000000
        0.000000000000000
        0.000000000000000
        0.000000000000000
        0.000111654287879
        0.000077846088843
       -0.000842081632162
       -0.002468361481558
       -0.002609608785039
       -0.001368872429293
        0.000000000000000
        0.000000000000000
        0.000000000000000
        0.000841980682779
        0.002255185704622
        0.001941466281069
       -0.005749294157279
       -0.008045105539025
       -0.004314499307606
       -0.001224533296265
        0.000000000000000
        0.000434032052720
        0.002675457867229
        0.010692738335208
        0.026392882952465
        0.009039899625911
       -0.008717920253327
       -0.006104239628247
       -0.001868576480926
        0.000000000000000
        0.000609857178376
        0.004338570549635
        0.020217757771081
        0.064631998000451
        0.084607007372945
        0.023754590735801
        0.000812431245684
       -0.000830549912490
       -0.000199797671706
        0.000000000000000
        0.003633178173417
        0.015687192566544
        0.046115511754706
        0.079237596458978
        0.047929358228139
        0.009535518254174
        0.000879707285988
       -0.000008515084945
        0.000000000000000
        0.001650838568895
        0.006977816144232
        0.017591208445728
        0.026710608568916
        0.018247805084156
        0.005717326332690
        0.001018833080564
        0.000000000000000
        0.000000000000000
        0.000000000000000
        0.001788842472460
        0.004349152457555
        0.005937019478577
        0.004371034078101
        0.001776301151325
        0.000397055188526
        0.000000000000000
        0.000000000000000
        0.000000000000000
        0.000000000000000
        0.000000000000000
        0.000861153090146
        0.000689571450963
        0.000000000000000
        0.000000000000000
        0.000000000000000
        0.000000000000000
        0.000000000000000
        0.000000000000000
        0.000000000000000
        0.000000000000000
        0.000000000000000
        0.000000000000000
        0.000000000000000
        0.000000000000000
        0.000000000000000
        0.000000000000000
        0.000275356172044
        0.000258240028022
       -0.000216697359236
       -0.000452097752591
        0.000000000000000
        0.000000000000000
        0.000000000000000
        0.000000000000000
        0.000598071373096
        0.001914077337385
        0.003075361900834
        0.001603498413182
       -0.000307262151967
       -0.000570585251310
        0.000000000000000
        0.000000000000000
        0.000000000000000
        0.001672867561453
        0.006027599773516
        0.013128628182576
        0.012280047588239
        0.004399771882173
        0.000429354731907
       -0.000140909192370
        0.000000000000000
        0.000000000000000
        0.002398373430272
        0.009477222535091
        0.024136745239119
        0.031891946769087
        0.016019282829791
        0.003935844282081
        0.000514217723498
        0.000000000000000
        0.000000000000000
        0.001720483500793
        0.007280934098222
        0.018382081735826
        0.027851759840108
        0.018953162671175
        0.005953865043549
        0.001070600772618
        0.000000000000000
        0.000000000000000
        0.000000000000000
        0.003030949325846
        0.008002920433664
        0.011783307550968
        0.008890357255285
        0.003457023876451
        0.000715444738203
        0.000000000000000
        0.000000000000000
        0.000000000000000
        0.000000000000000
        0.002022748372561
        0.003114869474441
        0.002475374014268
        0.001035533268399
        0.000000000000000
        0.000000000000000
        0.000000000000000
        0.000000000000000
        0.000000000000000
        0.000000000000000
        0.000000000000000
        0.000000000000000
        0.000000000000000
        0.000000000000000
        0.000000000000000
        0.000000000000000
        0.000000000000000
        0.000000000000000
        0.000000000000000
        0.000000000000000
        0.000000000000000
        0.000000000000000
        0.000000000000000
        0.000000000000000
        0.000000000000000
        0.000000000000000
        0.000000000000000
        0.000210049051330
        0.000145990163655
        0.000000000000000
        0.000000000000000
        0.000000000000000
        0.000000000000000
        0.000000000000000
        0.000000000000000
        0.000686395794506
        0.001231394716810
        0.001089913979721
        0.000459053430405
        0.000000000000000
        0.000000000000000
        0.000000000000000
        0.000000000000000
        0.000566933729872
        0.001882117582090
        0.003642561023802
        0.003865948527667
        0.002104249627413
        0.000626346891563
        0.000000000000000
        0.000000000000000
        0.000000000000000
        0.000722429761337
        0.002679344009429
        0.005703686012671
        0.006963380464103
        0.004503554827839
        0.001613950987974
        0.000338586040095
        0.000000000000000
        0.000000000000000
        0.000000000000000
        0.001916355516696
        0.004649001300601
        0.006337895488622
        0.004653461889566
        0.001889327523764
        0.000425426350981
        0.000000000000000
        0.000000000000000
        0.000000000000000
        0.000000000000000
        0.002080638373282
        0.003197548851769
        0.002536644606906
        0.001061293816756
        0.000000000000000
        0.000000000000000
        0.000000000000000
        0.000000000000000
        0.000000000000000
        0.000000000000000
        0.000911565262025
        0.000780093211820
        0.000000000000000
        0.000000000000000
        0.000000000000000
        0.000000000000000
        0.000000000000000
        0.000000000000000
        0.000000000000000
        0.000000000000000
        0.000000000000000
        0.000000000000000
        0.000000000000000
        0.000000000000000
        0.000000000000000
        0.000000000000000
        0.000000000000000
        0.000000000000000
        0.000000000000000
        0.000000000000000
        0.000000000000000
        0.000000000000000
        0.000000000000000
        0.000000000000000
        0.000000000000000
        0.000000000000000
        0.000000000000000
        0.000000000000000
        0.000000000000000
        0.000000000000000
        0.000000000000000
        0.000000000000000
        0.000000000000000
        0.000000000000000
        0.000000000000000
        0.000000000000000
        0.000000000000000
        0.000000000000000
        0.000000000000000
        0.000000000000000
        0.000000000000000
        0.000000000000000
        0.000000000000000
        0.000000000000000
        0.000626210518297
        0.000676494294038
        0.000000000000000
        0.000000000000000
        0.000000000000000
        0.000000000000000
        0.000000000000000
        0.000000000000000
        0.000000000000000
        0.000853498563606
        0.001199808287091
        0.000756448536163
        0.000000000000000
        0.000000000000000
        0.000000000000000
        0.000000000000000
        0.000000000000000
        0.000000000000000
        0.000000000000000
        0.000933022339466
        0.000746118658335
        0.000000000000000
        0.000000000000000
        0.000000000000000
        0.000000000000000
        0.000000000000000
        0.000000000000000
        0.000000000000000
        0.000000000000000
        0.000000000000000
        0.000000000000000
        0.000000000000000
        0.000000000000000
        0.000000000000000
        0.000000000000000
        0.000000000000000
        0.000000000000000
        0.000000000000000
        0.000000000000000
        0.000000000000000
        0.000000000000000
        0.000000000000000
        0.000000000000000
        0.000000000000000
        0.000000000000000
        0.000000000000000
        0.000000000000000
        0.000000000000000
        0.000000000000000
        0.000000000000000
        0.000000000000000
END_DATAGRID_3D
END_BLOCK_DATAGRID_3D
