ATOMS
         C    7.558905    7.558905    7.558905
         H    8.755769    8.755769    8.755769
         H    6.362040    6.362040    8.755769
         H    8.755769    6.362040    6.362040
         H    6.362040    8.755769    6.362040
BEGIN_BLOCK_DATAGRID_3D
units: coords = b, function = sqrt(b^-3)
BEGIN_DATAGRID_3D_function
      9      9      9
0.0 0.0 0.0
   15.117809    0.000000    0.000000
    0.000000   15.117809    0.000000
    0.000000    0.000000   15.117809
        0.000000000000000
        0.000000000000000
        0.000000000000000
        0.000000000000000
        0.000000000000000
        0.000000000000000
        0.000000000000000
        0.000000000000000
        0.000000000000000
        0.000000000000000
        0.000000000000000
        0.000000000000000
        0.000000000000000
        0.000000000000000
        0.000000000000000
        0.000000000000000
        0.000000000000000
        0.000000000000000
        0.000000000000000
        0.000000000000000
        0.000000000000000
        0.000000000000000
        0.000000000000000
        0.000000000000000
        0.000000000000000
        0.000000000000000
        0.000000000000000
        0.000000000000000
        0.000000000000000
        0.000000000000000
        0.000000000000000
       -0.000712948112604
       -0.000694658747462
        0.000000000000000
        0.000000000000000
        0.000000000000000
        0.000000000000000
        0.000000000000000
        0.000000000000000
       -0.000422738519725
       -0.000830734615764
       -0.000693719247127
        0.000000000000000
        0.000000000000000
        0.000000000000000
        0.000000000000000
        0.000000000000000
        0.000000000000000
       -0.000258933068518
       -0.000401625973428
        0.000000000000000
        0.000000000000000
        0.000000000000000
        0.000000000000000
        0.000000000000000
        0.000000000000000
        0.000000000000000
        0.000000000000000
        0.000000000000000
        0.000000000000000
        0.000000000000000
        0.000000000000000
        0.000000000000000
        0.000000000000000
        0.000000000000000
        0.000000000000000
        0.000000000000000
        0.000000000000000
        0.000000000000000
        0.000000000000000
        0.000000000000000
        0.000000000000000
        0.000000000000000
        0.000000000000000
        0.000000000000000
        0.000000000000000
        0.000000000000000
        0.000000000000000
        0.000000000000000
        0.000000000000000
        0.000000000000000
        0.000000000000000
        0.000000000000000
        0.000000000000000
        0.000000000000000
        0.000000000000000
        0.000000000000000
        0.000000000000000
        0.000000000000000
        0.000000000000000
        0.000000000000000
        0.000000000000000
        0.000000000000000
        0.000000000000000
       -0.000746746434671
       -0.000755625493280
        0.000000000000000
        0.000000000000000
        0.000000000000000
        0.000000000000000
        0.000000000000000
        0.000000000000000
       -0.001261959348696
       -0.002520875222437
       -0.002542294625625
       -0.001296422742117
        0.000000000000000
        0.000000000000000
        0.000000000000000
        0.000000000000000
       -0.000669949312686
       -0.002485921887799
       -0.004788599632494
       -0.004714773483228
       -0.002474980919099
       -0.000719420933512
        0.000000000000000
        0.000000000000000
       -0.000063097678956
       -0.000651339839951
       -0.002500797875415
       -0.004819408139933
       -0.004579330634414
       -0.002345591876172
       -0.000685217346734
        0.000000000000000
        0.000000000000000
        0.000014514937717
       -0.000175613365623
       -0.001060439292954
       -0.002273074853995
       -0.002180390979641
       -0.001092437364153
        0.000000000000000
        0.000000000000000
        0.000000000000000
        0.000000000000000
        0.000062439634980
       -0.000089228753076
       -0.000446454853257
       -0.000486798816776
        0.000000000000000
        0.000000000000000
        0.000000000000000
        0.000000000000000
        0.000000000000000
        0.000000000000000
        0.000062955790559
        0.000013813829704
        0.000000000000000
        0.000000000000000
        0.000000000000000
        0.000000000000000
        0.000000000000000
        0.000000000000000
        0.000000000000000
        0.000000000000000
        0.000000000000000
        0.000000000000000
        0.000000000000000
        0.000000000000000
        0.000000000000000
        0.000000000000000
        0.000000000000000
        0.000000000000000
        0.000000000000000
        0.000000000000000
        0.000000000000000
        0.000000000000000
        0.000000000000000
        0.000000000000000
        0.000000000000000
        0.000000000000000
        0.000000000000000
       -0.001222275538105
       -0.002463612409818
       -0.002499367759276
       -0.001278181858808
        0.000000000000000
        0.000000000000000
        0.000000000000000
        0.000000000000000
       -0.001073029758893
       -0.004423982118785
       -0.009267600101569
       -0.009509064420063
       -0.004680324027229
       -0.001244464314067
        0.000000000000000
        0.000000000000000
       -0.000144101930015
       -0.001851038248037
       -0.008748604920609
       -0.021266454493491
       -0.021578602091542
       -0.009184578813433
       -0.002346182946081
        0.000000000000000
        0.000000000000000
        0.000098441052972
       -0.001051151753048
       -0.008051502602780
       -0.022064406262142
       -0.019818596688677
       -0.008341117714870
       -0.002163053982106
        0.000000000000000
        0.000000000000000
        0.000378724368132
        0.000719927863069
       -0.000807724117687
       -0.006500562593250
       -0.006974832475015
       -0.003488019430958
       -0.000960272199636
        0.000000000000000
        0.000000000000000
        0.000294875137129
        0.000860251934807
        0.001126852051431
        0.000006572935149
       -0.000853950214564
       -0.000608763919829
        0.000000000000000
        0.000000000000000
        0.000000000000000
        0.000000000000000
        0.000340860059705
        0.000577065177744
        0.000458555999166
        0.000150799624542
        0.000000000000000
        0.000000000000000
        0.000000000000000
        0.000000000000000
        0.000000000000000
        0.000000000000000
        0.000000000000000
        0.000000000000000
        0.000000000000000
        0.000000000000000
        0.000000000000000
        0.000000000000000
        0.000000000000000
        0.000000000000000
        0.000000000000000
        0.000000000000000
       -0.000663073739065
       -0.000655096247590
        0.000000000000000
        0.000000000000000
        0.000000000000000
        0.000000000000000
        0.000000000000000
       -0.000583570643550
       -0.002280600748546
       -0.004510927240334
       -0.004516912724956
       -0.002394898890314
       -0.000699094149803
        0.000000000000000
        0.000000000000000
       -0.000097476051418
       -0.001645824338593
       -0.008206797371581
       -0.020476006371488
       -0.021084676297992
       -0.009017018399386
       -0.002309088658538
        0.000000000000000
        0.000000000000000
        0.000248592380753
       -0.001503231545746
       -0.016519099512721
       -0.060037364888357
       -0.064066239827248
       -0.020040011930871
       -0.004109058524726
       -0.000572029682238
        0.000230514860422
        0.001149046844679
        0.002385179383648
       -0.008582815980402
       -0.058521148450673
       -0.052829911299035
       -0.017214517048822
       -0.003679950758286
       -0.000533172434562
        0.000253823202839
        0.001504639849026
        0.005618362695149
        0.012014591091974
       -0.001020603842096
       -0.009204986513899
       -0.005116531351972
       -0.001484696665392
        0.000000000000000
        0.000000000000000
        0.000934757573966
        0.003274117918511
        0.006855832926092
        0.005985715466362
        0.001739125633896
       -0.000127255039421
       -0.000184109897356
        0.000000000000000
        0.000000000000000
        0.000319229071902
        0.001045760263152
        0.002010259613794
        0.002113839706906
        0.001121837209743
        0.000320251584735
        0.000000000000000
        0.000000000000000
        0.000000000000000
        0.000000000000000
        0.000000000000000
        0.000356081778839
        0.000384910491347
        0.000000000000000
        0.000000000000000
        0.000000000000000
        0.000000000000000
        0.000000000000000
        0.000000000000000
        0.000000000000000
       -0.000350314914057
       -0.000731806650889
       -0.000633523943522
        0.000000000000000
        0.000000000000000
        0.000000000000000
        0.000000000000000
       -0.000009333507621
       -0.000447218747579
       -0.002043706594125
       -0.004245307970707
       -0.004195872133767
       -0.002197319543754
       -0.000652337730730
        0.000000000000000
        0.000000000000000
        0.000244966857620
       -0.000398992977041
       -0.006212628884646
       -0.019435367390447
       -0.018352174151566
       -0.007893709298553
       -0.002072308836784
        0.000000000000000
        0.000252952621642
        0.001327429962656
        0.003431151845485
       -0.004454394733744
       -0.051546558701289
       -0.049689867992033
       -0.016539634900141
       -0.003574838189936
       -0.000522995034867
        0.000473008419721
        0.002761346901231
        0.012800057045340
        0.034264380230833
        0.000114180511307
       -0.034736723062647
       -0.013210789897641
       -0.002918747755747
       -0.000505747725904
        0.000381885656889
        0.002721555488338
        0.012668690986646
        0.040210081927532
        0.051627181122137
        0.013448898605305
       -0.000097254191630
       -0.000699565482183
       -0.000155300634838
        0.000000000000000
        0.001458402735947
        0.005765742120511
        0.014700942921880
        0.019458602291370
        0.009745856781247
        0.002340519602932
        0.000278031225496
        0.000000000000000
        0.000000000000000
        0.000430004536791
        0.001609492400006
        0.003448070822463
        0.004249108836537
        0.002771757035642
        0.000995312338275
        0.000209671690445
        0.000000000000000
        0.000000000000000
        0.000000000000000
        0.000000000000000
        0.000512917394358
        0.000732105764462
        0.000468995649448
        0.000000000000000
        0.000000000000000
        0.000000000000000
        0.000000000000000
        0.000000000000000
        0.000000000000000
       -0.000185596855992
       -0.000318798358190
        0.000000000000000
        0.000000000000000
        0.000000000000000
        0.000000000000000
        0.000000000000000
        0.000074829302081
        0.000052488603597
       -0.000576666737283
       -0.001709397196985
       -0.001828166591623
       -0.000969105796517
        0.000000000000000
        0.000000000000000
        0.000000000000000
        0.000563293854753
        0.001528214492581
        0.001329629631290
       -0.003981889223502
       -0.005633708247314
       -0.003056512433287
       -0.000876968914818
        0.000000000000000
        0.000287370521656
        0.001788281636162
        0.007256606141865
        0.018090060327007
        0.006255916889606
       -0.006104024414606
       -0.004319887409539
       -0.001339121089058
        0.000000000000000
        0.000404323418109
        0.002899938606315
        0.013714663448482
        0.044338503174189
        0.058601770871520
        0.016588941912307
        0.000577627957050
       -0.000594452913832
       -0.000145123235143
        0.000000000000000
        0.002431091698062
        0.010625222702074
        0.031630423866929
        0.054906592434119
        0.033544387464455
        0.006736981705487
        0.000632762344172
       -0.000006464083863
        0.000000000000000
        0.001105646057615
        0.004723563747334
        0.012051714274108
        0.018503788007645
        0.012779501432158
        0.004047651567826
        0.000730711791934
        0.000000000000000
        0.000000000000000
        0.000000000000000
        0.001212002656261
        0.002978023642840
        0.004111929433469
        0.003062141868430
        0.001258732432515
        0.000284396334629
        0.000000000000000
        0.000000000000000
        0.000000000000000
        0.000000000000000
        0.000000000000000
        0.000597578838101
        0.000482455379363
        0.000000000000000
        0.000000000000000
        0.000000000000000
        0.000000000000000
        0.000000000000000
        0.000000000000000
        0.000000000000000
        0.000000000000000
        0.000000000000000
        0.000000000000000
        0.000000000000000
        0.000000000000000
        0.000000000000000
        0.000000000000000
        0.000186579812754
        0.000176820968742
       -0.000150145143232
       -0.000316230720238
        0.000000000000000
        0.000000000000000
        0.000000000000000
        0.000000000000000
        0.000400406102176
        0.001295727389066
        0.002105842912520
        0.001110560191505
       -0.000215277430060
       -0.000403810363055
        0.000000000000000
        0.000000000000000
        0.000000000000000
        0.001119327060587
        0.004082404548023
        0.008993186675068
        0.008504388836110
        0.003080249861596
        0.000304251958250
       -0.000100806612538
        0.000000000000000
        0.000000000000000
        0.001604928540595
        0.006417900896518
        0.016539816640013
        0.022087641163064
        0.011212279318358
        0.002787928019249
        0.000368776370818
        0.000000000000000
        0.000000000000000
        0.001152271936212
        0.004928777656778
        0.012593521823136
        0.019294236129648
        0.013273427225708
        0.004215211981873
        0.000767806079477
        0.000000000000000
        0.000000000000000
        0.000000000000000
        0.002053580766990
        0.005480774735217
        0.008161390683058
        0.006227779359045
        0.002449119104278
        0.000512536684362
        0.000000000000000
        0.000000000000000
        0.000000000000000
        0.000000000000000
        0.001386620558522
        0.002157447576422
        0.001734125641670
        0.000733255735805
        0.000000000000000
        0.000000000000000
        0.000000000000000
        0.000000000000000
        0.000000000000000
        0.000000000000000
        0.000000000000000
        0.000000000000000
        0.000000000000000
        0.000000000000000
        0.000000000000000
        0.000000000000000
        0.000000000000000
        0.000000000000000
        0.000000000000000
        0.000000000000000
        0.000000000000000
        0.000000000000000
        0.000000000000000
        0.000000000000000
        0.000000000000000
        0.000000000000000
        0.000000000000000
        0.000144050823150
        0.000101023656657
        0.000000000000000
        0.000000000000000
        0.000000000000000
        0.000000000000000
        0.000000000000000
        0.000000000000000
        0.000465000237478
        0.000843114899561
        0.000754865709190
        0.000321367721080
        0.000000000000000
        0.000000000000000
        0.000000000000000
        0.000000000000000
        0.000379543436265
        0.001273862232371
        0.002494032169465
        0.002677517363917
        0.001474061597762
        0.000443583152371
        0.000000000000000
        0.000000000000000
        0.000000000000000
        0.000483768708126
        0.001813613492377
        0.003905162103752
        0.004823209005764
        0.003155215536290
        0.001143584670693
        0.000242551306449
        0.000000000000000
        0.000000000000000
        0.000000000000000
        0.001298381325396
        0.003183344782093
        0.004389601825629
        0.003260002626702
        0.001338814461299
        0.000304723118338
        0.000000000000000
        0.000000000000000
        0.000000000000000
        0.000000000000000
        0.001426304369113
        0.002214710389041
        0.001777052508019
        0.000751496619113
        0.000000000000000
        0.000000000000000
        0.000000000000000
        0.000000000000000
        0.000000000000000
        0.000000000000000
        0.000632419733200
        0.000545841795292
        0.000000000000000
        0.000000000000000
        0.000000000000000
        0.000000000000000
        0.000000000000000
        0.000000000000000
        0.000000000000000
        0.000000000000000
        0.000000000000000
        0.000000000000000
        0.000000000000000
        0.000000000000000
        0.000000000000000
        0.000000000000000
        0.000000000000000
        0.000000000000000
        0.000000000000000
        0.000000000000000
        0.000000000000000
        0.000000000000000
        0.000000000000000
        0.000000000000000
        0.000000000000000
        0.000000000000000
        0.000000000000000
        0.000000000000000
        0.000000000000000
        0.000000000000000
        0.000000000000000
        0.000000000000000
        0.000000000000000
        0.000000000000000
        0.000000000000000
        0.000000000000000
        0.000000000000000
        0.000000000000000
        0.000000000000000
        0.000000000000000
        0.000000000000000
        0.000000000000000
        0.000000000000000
        0.000000000000000
        0.000429417991365
        0.000467738106585
        0.000000000000000
        0.000000000000000
        0.000000000000000
        0.000000000000000
        0.000000000000000
        0.000000000000000
        0.000000000000000
        0.000585341000025
        0.000831033729338
        0.000529190953053
        0.000000000000000
        0.000000000000000
        0.000000000000000
        0.000000000000000
        0.000000000000000
        0.000000000000000
        0.000000000000000
        0.000647453211640
        0.000522017879235
        0.000000000000000
        0.000000000000000
        0.000000000000000
        0.000000000000000
        0.000000000000000
        0.000000000000000
        0.000000000000000
        0.000000000000000
        0.000000000000000
        0.000000000000000
        0.000000000000000
        0.000000000000000
        0.000000000000000
        0.000000000000000
        0.000000000000000
        0.000000000000000
        0.000000000000000
        0.000000000000000
        0.000000000000000
        0.000000000000000
        0.000000000000000
        0.000000000000000
        0.000000000000000
        0.000000000000000
        0.000000000000000
        0.000000000000000
        0.000000000000000
        0.000000000000000
        0.000000000000000
        0.000000000000000
END_DATAGRID_3D
END_BLOCK_DATAGRID_3D
