ATOMS
         C    7.558905    7.558905    7.558905
         H    8.755769    8.755769    8.755769
         H    6.362040    6.362040    8.755769
         H    8.755769    6.362040    6.362040
         H    6.362040    8.755769    6.362040
BEGIN_BLOCK_DATAGRID_3D
units: coords = b, function = sqrt(b^-3)
BEGIN_DATAGRID_3D_function
      9      9      9
0.0 0.0 0.0
   15.117809    0.000000    0.000000
    0.000000   15.117809    0.000000
    0.000000    0.000000   15.117809
        0.000000000000000
        0.000000000000000
        0.000000000000000
        0.000000000000000
        0.000000000000000
        0.000000000000000
        0.000000000000000
        0.000000000000000
        0.000000000000000
        0.000000000000000
        0.000000000000000
        0.000000000000000
        0.000000000000000
        0.000000000000000
        0.000000000000000
        0.000000000000000
        0.000000000000000
        0.000000000000000
        0.000000000000000
        0.000000000000000
        0.000000000000000
        0.000000000000000
        0.000000000000000
        0.000000000000000
        0.000000000000000
        0.000000000000000
        0.000000000000000
        0.000000000000000
        0.000000000000000
        0.000000000000000
        0.000000000000000
       -0.001251614253262
       -0.001210768068677
        0.000000000000000
        0.000000000000000
        0.000000000000000
        0.000000000000000
        0.000000000000000
        0.000000000000000
       -0.000748928037449
       -0.001459427241297
       -0.001209058725432
        0.000000000000000
        0.000000000000000
        0.000000000000000
        0.000000000000000
        0.000000000000000
        0.000000000000000
       -0.000458771091057
       -0.000706372509618
        0.000000000000000
        0.000000000000000
        0.000000000000000
        0.000000000000000
        0.000000000000000
        0.000000000000000
        0.000000000000000
        0.000000000000000
        0.000000000000000
        0.000000000000000
        0.000000000000000
        0.000000000000000
        0.000000000000000
        0.000000000000000
        0.000000000000000
        0.000000000000000
        0.000000000000000
        0.000000000000000
        0.000000000000000
        0.000000000000000
        0.000000000000000
        0.000000000000000
        0.000000000000000
        0.000000000000000
        0.000000000000000
        0.000000000000000
        0.000000000000000
        0.000000000000000
        0.000000000000000
        0.000000000000000
        0.000000000000000
        0.000000000000000
        0.000000000000000
        0.000000000000000
        0.000000000000000
        0.000000000000000
        0.000000000000000
        0.000000000000000
        0.000000000000000
        0.000000000000000
        0.000000000000000
        0.000000000000000
        0.000000000000000
        0.000000000000000
       -0.001311238691462
       -0.001317086917605
        0.000000000000000
        0.000000000000000
        0.000000000000000
        0.000000000000000
        0.000000000000000
        0.000000000000000
       -0.002236660590461
       -0.004430066817175
       -0.004427939180754
       -0.002239108629070
        0.000000000000000
        0.000000000000000
        0.000000000000000
        0.000000000000000
       -0.001198348200326
       -0.004408366023770
       -0.008415383058894
       -0.008211551931673
       -0.004272246740735
       -0.001231768189854
        0.000000000000000
        0.000000000000000
       -0.000114029399853
       -0.001165746538909
       -0.004435474429318
       -0.008468923163725
       -0.007974628026522
       -0.004049230354636
       -0.001173203419433
        0.000000000000000
        0.000000000000000
        0.000025913989520
       -0.000314699385094
       -0.001881317811126
       -0.003994719396946
       -0.003797307656926
       -0.001886879285375
        0.000000000000000
        0.000000000000000
        0.000000000000000
        0.000000000000000
        0.000111148632099
       -0.000159006945076
       -0.000784910076370
       -0.000848566895240
        0.000000000000000
        0.000000000000000
        0.000000000000000
        0.000000000000000
        0.000000000000000
        0.000000000000000
        0.000111232717271
        0.000024005872175
        0.000000000000000
        0.000000000000000
        0.000000000000000
        0.000000000000000
        0.000000000000000
        0.000000000000000
        0.000000000000000
        0.000000000000000
        0.000000000000000
        0.000000000000000
        0.000000000000000
        0.000000000000000
        0.000000000000000
        0.000000000000000
        0.000000000000000
        0.000000000000000
        0.000000000000000
        0.000000000000000
        0.000000000000000
        0.000000000000000
        0.000000000000000
        0.000000000000000
        0.000000000000000
        0.000000000000000
        0.000000000000000
       -0.002166378451834
       -0.004329486507143
       -0.004353213952919
       -0.002207616995056
        0.000000000000000
        0.000000000000000
        0.000000000000000
        0.000000000000000
       -0.001919644213917
       -0.007846528810130
       -0.016288311258297
       -0.016562165018309
       -0.008078169721647
       -0.002130377590164
        0.000000000000000
        0.000000000000000
       -0.000260170616504
       -0.003314727181876
       -0.015519311853399
       -0.037376464912022
       -0.037585424094930
       -0.015853108042360
       -0.004014243245229
        0.000000000000000
        0.000000000000000
        0.000176873280126
       -0.001885656693273
       -0.014286993813541
       -0.038780084972279
       -0.034521198112760
       -0.014395471990894
       -0.003701957120159
        0.000000000000000
        0.000000000000000
        0.000682787815348
        0.001283976831359
       -0.001444189134476
       -0.011431727014279
       -0.012150289780275
       -0.006020958987027
       -0.001644216426218
        0.000000000000000
        0.000000000000000
        0.000531522082417
        0.001537041672010
        0.001993033807308
        0.000007182574130
       -0.001489157358772
       -0.001052026898502
        0.000000000000000
        0.000000000000000
        0.000000000000000
        0.000000000000000
        0.000608761487309
        0.001021758523038
        0.000804402667111
        0.000261991409112
        0.000000000000000
        0.000000000000000
        0.000000000000000
        0.000000000000000
        0.000000000000000
        0.000000000000000
        0.000000000000000
        0.000000000000000
        0.000000000000000
        0.000000000000000
        0.000000000000000
        0.000000000000000
        0.000000000000000
        0.000000000000000
        0.000000000000000
        0.000000000000000
       -0.001164106352837
       -0.001141847539481
        0.000000000000000
        0.000000000000000
        0.000000000000000
        0.000000000000000
        0.000000000000000
       -0.001043983565649
       -0.004044543354916
       -0.007927746917365
       -0.007867148066852
       -0.004134043430090
       -0.001196982497853
        0.000000000000000
        0.000000000000000
       -0.000176088120454
       -0.002947742066291
       -0.014559251714134
       -0.035988421913126
       -0.036725788467793
       -0.015564015152358
       -0.003950765162419
        0.000000000000000
        0.000000000000000
        0.000448206059418
       -0.002703724289225
       -0.029298449981859
       -0.105504900423290
       -0.111629977329929
       -0.034617363600644
       -0.007022430084014
       -0.000972806432963
        0.000419191661088
        0.002073850784418
        0.004241623163310
       -0.015251188903189
       -0.102875890424625
       -0.092091077664466
       -0.029728707597781
       -0.006290968669500
       -0.000906920547359
        0.000461230730447
        0.002716037819567
        0.010030858315459
        0.021239950745514
       -0.001837366144365
       -0.016056494866004
       -0.008835493974310
       -0.002541138582188
        0.000000000000000
        0.000000000000000
        0.001685832306958
        0.005852057939728
        0.012139283182608
        0.010501337478656
        0.003020033450598
       -0.000222069316848
       -0.000315592738007
        0.000000000000000
        0.000000000000000
        0.000575577671917
        0.001869110574630
        0.003560755802405
        0.003710629032283
        0.001951610832145
        0.000552302707188
        0.000000000000000
        0.000000000000000
        0.000000000000000
        0.000000000000000
        0.000000000000000
        0.000630271836965
        0.000676377466566
        0.000000000000000
        0.000000000000000
        0.000000000000000
        0.000000000000000
        0.000000000000000
        0.000000000000000
        0.000000000000000
       -0.000620712627263
       -0.001285700692042
       -0.001104200314479
        0.000000000000000
        0.000000000000000
        0.000000000000000
        0.000000000000000
       -0.000017079439043
       -0.000800821702596
       -0.003625545445284
       -0.007460803844373
       -0.007307289617878
       -0.003793377453956
       -0.001116924422023
        0.000000000000000
        0.000000000000000
        0.000441217806408
       -0.000719330299525
       -0.011029166363573
       -0.034163801164899
       -0.031969021117975
       -0.013623733762961
       -0.003546684529510
        0.000000000000000
        0.000459899170848
        0.002396143626923
        0.006111407614383
       -0.007942446934517
       -0.090629803097163
       -0.086622066119759
       -0.028564573601891
       -0.006111266402386
       -0.000889570036831
        0.000859602278982
        0.004988193618745
        0.022841460319498
        0.060593873650530
       -0.000000000000000
       -0.060593873650528
       -0.022841460319497
       -0.004988193618744
       -0.000859602278982
        0.000693354541267
        0.004913403606111
        0.022636605185176
        0.071167015012765
        0.090629803097164
        0.023397498041514
       -0.000183439197666
       -0.001198280830649
       -0.000263683675284
        0.000000000000000
        0.002630402275553
        0.010308911009879
        0.026041052701259
        0.034163801164900
        0.016957134780290
        0.004034153052607
        0.000475064447549
        0.000000000000000
        0.000000000000000
        0.000775259246661
        0.002877095199999
        0.006109426821604
        0.007460803844374
        0.004823408241559
        0.001717103956552
        0.000358744614405
        0.000000000000000
        0.000000000000000
        0.000000000000000
        0.000000000000000
        0.000907984818915
        0.001285700692042
        0.000816928122827
        0.000000000000000
        0.000000000000000
        0.000000000000000
        0.000000000000000
        0.000000000000000
        0.000000000000000
       -0.000328953876528
       -0.000560806588906
        0.000000000000000
        0.000000000000000
        0.000000000000000
        0.000000000000000
        0.000000000000000
        0.000134670149555
        0.000093115837772
       -0.001024291839036
       -0.003005088145797
       -0.003184347562981
       -0.001673986197577
        0.000000000000000
        0.000000000000000
        0.000000000000000
        0.001015877810379
        0.002729156688438
        0.002342162262087
       -0.007009765568422
       -0.009816630112854
       -0.005276647494492
       -0.001501605477047
        0.000000000000000
        0.000522127415781
        0.003228659926836
        0.012957574084885
        0.031999752235595
        0.010940387369012
       -0.010657556270707
       -0.007461894446154
       -0.002292001157097
        0.000000000000000
        0.000734062051027
        0.005235696448616
        0.024506389636248
        0.078475756981436
        0.102875890424625
        0.028866509586220
        0.000980694798223
       -0.001018578563534
       -0.000246333164757
        0.000000000000000
        0.004384933679867
        0.019001112709691
        0.056012501118571
        0.096401879198644
        0.058390274348821
        0.011628931200301
        0.001077732337611
       -0.000010551713265
        0.000000000000000
        0.001993286335508
        0.008446458877632
        0.021355848376390
        0.032496850002893
        0.022244343023099
        0.006982800524192
        0.001249055045081
        0.000000000000000
        0.000000000000000
        0.000000000000000
        0.002165667056038
        0.005277280085751
        0.007222206030880
        0.005330684103483
        0.002171817017689
        0.000486734676381
        0.000000000000000
        0.000000000000000
        0.000000000000000
        0.000000000000000
        0.000000000000000
        0.001048535475176
        0.000840529579044
        0.000000000000000
        0.000000000000000
        0.000000000000000
        0.000000000000000
        0.000000000000000
        0.000000000000000
        0.000000000000000
        0.000000000000000
        0.000000000000000
        0.000000000000000
        0.000000000000000
        0.000000000000000
        0.000000000000000
        0.000000000000000
        0.000332964005632
        0.000312286360600
       -0.000264712649408
       -0.000551591311392
        0.000000000000000
        0.000000000000000
        0.000000000000000
        0.000000000000000
        0.000721845821935
        0.002315681108183
        0.003727306554389
        0.001945247195811
       -0.000377860750653
       -0.000698286641178
        0.000000000000000
        0.000000000000000
        0.000000000000000
        0.002018922301989
        0.007297237796807
        0.015925634579171
        0.014923298924513
        0.005353693118019
        0.000522242175687
       -0.000172981788836
        0.000000000000000
        0.000000000000000
        0.002894746801835
        0.011475237403627
        0.029298880151227
        0.038780084972279
        0.019509311775074
        0.004805891280540
        0.000630337038198
        0.000000000000000
        0.000000000000000
        0.002077368831558
        0.008813443993216
        0.022315908515655
        0.033884893001788
        0.023103978650236
        0.007271893414194
        0.001312533127891
        0.000000000000000
        0.000000000000000
        0.000000000000000
        0.003669957753597
        0.009713546919555
        0.014335881488357
        0.010841824656612
        0.004225446941454
        0.000877009685812
        0.000000000000000
        0.000000000000000
        0.000000000000000
        0.000000000000000
        0.002455978354114
        0.003789796489440
        0.003019169069281
        0.001265891502115
        0.000000000000000
        0.000000000000000
        0.000000000000000
        0.000000000000000
        0.000000000000000
        0.000000000000000
        0.000000000000000
        0.000000000000000
        0.000000000000000
        0.000000000000000
        0.000000000000000
        0.000000000000000
        0.000000000000000
        0.000000000000000
        0.000000000000000
        0.000000000000000
        0.000000000000000
        0.000000000000000
        0.000000000000000
        0.000000000000000
        0.000000000000000
        0.000000000000000
        0.000000000000000
        0.000254774569307
        0.000177234830396
        0.000000000000000
        0.000000000000000
        0.000000000000000
        0.000000000000000
        0.000000000000000
        0.000000000000000
        0.000830576860842
        0.001493051828714
        0.001324600094073
        0.000558966992960
        0.000000000000000
        0.000000000000000
        0.000000000000000
        0.000000000000000
        0.000684333831952
        0.002276925797496
        0.004417781774495
        0.004700260283431
        0.002564570926091
        0.000765195794986
        0.000000000000000
        0.000000000000000
        0.000000000000000
        0.000872209207471
        0.003242020036313
        0.006919355805638
        0.008468923163725
        0.005490746650202
        0.001972956857233
        0.000415023611815
        0.000000000000000
        0.000000000000000
        0.000000000000000
        0.002320031690715
        0.005641102754605
        0.007709842172408
        0.005675087968304
        0.002310020328334
        0.000521520368383
        0.000000000000000
        0.000000000000000
        0.000000000000000
        0.000000000000000
        0.002526260492742
        0.003890376799472
        0.003093894297116
        0.001297383136130
        0.000000000000000
        0.000000000000000
        0.000000000000000
        0.000000000000000
        0.000000000000000
        0.000000000000000
        0.001109997988891
        0.000951079631027
        0.000000000000000
        0.000000000000000
        0.000000000000000
        0.000000000000000
        0.000000000000000
        0.000000000000000
        0.000000000000000
        0.000000000000000
        0.000000000000000
        0.000000000000000
        0.000000000000000
        0.000000000000000
        0.000000000000000
        0.000000000000000
        0.000000000000000
        0.000000000000000
        0.000000000000000
        0.000000000000000
        0.000000000000000
        0.000000000000000
        0.000000000000000
        0.000000000000000
        0.000000000000000
        0.000000000000000
        0.000000000000000
        0.000000000000000
        0.000000000000000
        0.000000000000000
        0.000000000000000
        0.000000000000000
        0.000000000000000
        0.000000000000000
        0.000000000000000
        0.000000000000000
        0.000000000000000
        0.000000000000000
        0.000000000000000
        0.000000000000000
        0.000000000000000
        0.000000000000000
        0.000000000000000
        0.000000000000000
        0.000760089051495
        0.000821943387279
        0.000000000000000
        0.000000000000000
        0.000000000000000
        0.000000000000000
        0.000000000000000
        0.000000000000000
        0.000000000000000
        0.001036200229100
        0.001459427241297
        0.000921786533780
        0.000000000000000
        0.000000000000000
        0.000000000000000
        0.000000000000000
        0.000000000000000
        0.000000000000000
        0.000000000000000
        0.001136043375601
        0.000909450108239
        0.000000000000000
        0.000000000000000
        0.000000000000000
        0.000000000000000
        0.000000000000000
        0.000000000000000
        0.000000000000000
        0.000000000000000
        0.000000000000000
        0.000000000000000
        0.000000000000000
        0.000000000000000
        0.000000000000000
        0.000000000000000
        0.000000000000000
        0.000000000000000
        0.000000000000000
        0.000000000000000
        0.000000000000000
        0.000000000000000
        0.000000000000000
        0.000000000000000
        0.000000000000000
        0.000000000000000
        0.000000000000000
        0.000000000000000
        0.000000000000000
        0.000000000000000
        0.000000000000000
        0.000000000000000
END_DATAGRID_3D
END_BLOCK_DATAGRID_3D
