ATOMS
         C    7.558905    7.558905    7.558905
         H    8.755769    8.755769    8.755769
         H    6.362040    6.362040    8.755769
         H    8.755769    6.362040    6.362040
         H    6.362040    8.755769    6.362040
BEGIN_BLOCK_DATAGRID_3D
units: coords = b, function = 1/hbar/H*b^-2
BEGIN_DATAGRID_3D_function
      9      9      9
0.0 0.0 0.0
   15.117809    0.000000    0.000000
    0.000000   15.117809    0.000000
    0.000000    0.000000   15.117809
        0.000000000000000
        0.000000000000000
        0.000000000000000
        0.000000000000000
        0.000000000000000
        0.000000000000000
        0.000000000000000
        0.000000000000000
        0.000000000000000
        0.000000000000000
        0.000000000000000
        0.000000000000000
        0.000000000000000
        0.000000000000000
        0.000000000000000
        0.000000000000000
        0.000000000000000
        0.000000000000000
        0.000000000000000
        0.000000000000000
        0.000000000000000
        0.000000000000000
        0.000000000000000
        0.000000000000000
        0.000000000000000
        0.000000000000000
        0.000000000000000
        0.000000000000000
        0.000000000000000
        0.000000000000000
        0.000000000000000
        0.000000000000095
       -0.000000000000024
        0.000000000000000
        0.000000000000000
        0.000000000000000
        0.000000000000000
        0.000000000000000
        0.000000000000000
        0.000000000000026
       -0.000000000000023
       -0.000000000000024
        0.000000000000000
        0.000000000000000
        0.000000000000000
        0.000000000000000
        0.000000000000000
        0.000000000000000
        0.000000000000026
       -0.000000000000110
        0.000000000000000
        0.000000000000000
        0.000000000000000
        0.000000000000000
        0.000000000000000
        0.000000000000000
        0.000000000000000
        0.000000000000000
        0.000000000000000
        0.000000000000000
        0.000000000000000
        0.000000000000000
        0.000000000000000
        0.000000000000000
        0.000000000000000
        0.000000000000000
        0.000000000000000
        0.000000000000000
        0.000000000000000
        0.000000000000000
        0.000000000000000
        0.000000000000000
        0.000000000000000
        0.000000000000000
        0.000000000000000
        0.000000000000000
        0.000000000000000
        0.000000000000000
        0.000000000000000
        0.000000000000000
        0.000000000000000
        0.000000000000000
        0.000000000000000
        0.000000000000000
        0.000000000000000
        0.000000000000000
        0.000000000000000
        0.000000000000000
        0.000000000000000
        0.000000000000000
        0.000000000000000
        0.000000000000000
        0.000000000000000
        0.000000000000000
        0.000000000000108
        0.000000000000219
        0.000000000000000
        0.000000000000000
        0.000000000000000
        0.000000000000000
        0.000000000000000
        0.000000000000000
       -0.000000000000329
        0.000000000000558
       -0.000000000000346
        0.000000000000250
        0.000000000000000
        0.000000000000000
        0.000000000000000
        0.000000000000000
       -0.000000000000257
        0.000000000000063
        0.000000000000222
        0.000000000000512
        0.000000000000062
       -0.000000000000003
        0.000000000000000
        0.000000000000000
        0.000000000000003
       -0.000000000000060
       -0.000000000000776
       -0.000000000000018
        0.000000000000810
        0.000000000000008
       -0.000000000000003
        0.000000000000000
        0.000000000000000
        0.000000000000003
       -0.000000000000018
       -0.000000000000565
       -0.000000000000180
       -0.000000000000131
        0.000000000000224
        0.000000000000000
        0.000000000000000
        0.000000000000000
        0.000000000000000
       -0.000000000000222
        0.000000000000371
       -0.000000000000587
        0.000000000000276
        0.000000000000000
        0.000000000000000
        0.000000000000000
        0.000000000000000
        0.000000000000000
        0.000000000000000
       -0.000000000000192
       -0.000000000000138
        0.000000000000000
        0.000000000000000
        0.000000000000000
        0.000000000000000
        0.000000000000000
        0.000000000000000
        0.000000000000000
        0.000000000000000
        0.000000000000000
        0.000000000000000
        0.000000000000000
        0.000000000000000
        0.000000000000000
        0.000000000000000
        0.000000000000000
        0.000000000000000
        0.000000000000000
        0.000000000000000
        0.000000000000000
        0.000000000000000
        0.000000000000000
        0.000000000000000
        0.000000000000000
        0.000000000000000
        0.000000000000000
       -0.000000000000410
        0.000000000000700
       -0.000000000000549
        0.000000000000461
        0.000000000000000
        0.000000000000000
        0.000000000000000
        0.000000000000000
       -0.000000000001043
        0.000000000000555
       -0.000000000001376
        0.000000000003398
       -0.000000000000986
        0.000000000000241
        0.000000000000000
        0.000000000000000
       -0.000000000000247
        0.000000000000080
        0.000000000000676
        0.000000000003251
        0.000000000004311
        0.000000000001149
        0.000000000000047
        0.000000000000000
        0.000000000000000
       -0.000000000000044
       -0.000000000001201
       -0.000000000000142
       -0.000000000000507
       -0.000000000000246
        0.000000000001332
        0.000000000000024
        0.000000000000000
        0.000000000000000
       -0.000000000000034
       -0.000000000001354
       -0.000000000005410
       -0.000000000003652
       -0.000000000000049
       -0.000000000000133
        0.000000000000235
        0.000000000000000
        0.000000000000000
       -0.000000000000231
        0.000000000000958
       -0.000000000003705
        0.000000000001510
       -0.000000000000535
        0.000000000000946
        0.000000000000000
        0.000000000000000
        0.000000000000000
        0.000000000000000
       -0.000000000000415
        0.000000000000534
       -0.000000000000679
        0.000000000000334
        0.000000000000000
        0.000000000000000
        0.000000000000000
        0.000000000000000
        0.000000000000000
        0.000000000000000
        0.000000000000000
        0.000000000000000
        0.000000000000000
        0.000000000000000
        0.000000000000000
        0.000000000000000
        0.000000000000000
        0.000000000000000
        0.000000000000000
        0.000000000000000
        0.000000000000002
       -0.000000000000193
        0.000000000000000
        0.000000000000000
        0.000000000000000
        0.000000000000000
        0.000000000000000
       -0.000000000000394
        0.000000000000531
       -0.000000000000120
        0.000000000000663
       -0.000000000000435
        0.000000000000197
        0.000000000000000
        0.000000000000000
       -0.000000000000295
        0.000000000000418
       -0.000000000000313
       -0.000000000001517
        0.000000000022442
        0.000000000001645
       -0.000000000000229
        0.000000000000000
        0.000000000000000
       -0.000000000000014
        0.000000000001787
       -0.000000000009385
       -0.000000000099913
       -0.000000000079736
        0.000000000003830
        0.000000000000614
       -0.000000000000024
        0.000000000000026
       -0.000000000001037
        0.000000000003262
        0.000000000059660
       -0.000000000021224
       -0.000000000078002
        0.000000000003159
        0.000000000000549
       -0.000000000000024
        0.000000000000026
       -0.000000000000463
       -0.000000000005892
        0.000000000045939
        0.000000000083056
        0.000000000020231
        0.000000000001063
       -0.000000000000209
        0.000000000000000
        0.000000000000000
        0.000000000000487
       -0.000000000005457
       -0.000000000026690
        0.000000000007640
        0.000000000003582
       -0.000000000000673
        0.000000000000311
        0.000000000000000
        0.000000000000000
       -0.000000000000215
        0.000000000000648
       -0.000000000000443
       -0.000000000000275
       -0.000000000000674
        0.000000000000351
        0.000000000000000
        0.000000000000000
        0.000000000000000
        0.000000000000000
        0.000000000000000
        0.000000000000220
       -0.000000000000040
        0.000000000000000
        0.000000000000000
        0.000000000000000
        0.000000000000000
        0.000000000000000
        0.000000000000000
        0.000000000000000
        0.000000000000015
       -0.000000000000578
        0.000000000000027
        0.000000000000000
        0.000000000000000
        0.000000000000000
        0.000000000000000
        0.000000000000126
        0.000000000000661
       -0.000000000000314
        0.000000000005748
        0.000000000000469
        0.000000000000718
        0.000000000000119
        0.000000000000000
        0.000000000000000
        0.000000000000526
       -0.000000000000789
        0.000000000002845
       -0.000000000101763
       -0.000000000012002
       -0.000000000002097
        0.000000000000619
        0.000000000000000
        0.000000000000105
       -0.000000000000178
        0.000000000009677
       -0.000000000057907
       -0.000000000515580
       -0.000000000125067
       -0.000000000002776
        0.000000000000580
        0.000000000000100
       -0.000000000000000
        0.000000000000000
       -0.000000000000000
        0.000000000000000
        0.000000000000000
       -0.000000000000000
       -0.000000000000000
        0.000000000000000
       -0.000000000000000
       -0.000000000000105
        0.000000000000178
       -0.000000000009677
        0.000000000057907
        0.000000000515580
        0.000000000125067
        0.000000000002776
       -0.000000000000580
       -0.000000000000100
        0.000000000000000
       -0.000000000000526
        0.000000000000789
       -0.000000000002845
        0.000000000101763
        0.000000000012002
        0.000000000002097
       -0.000000000000619
        0.000000000000000
        0.000000000000000
       -0.000000000000126
       -0.000000000000661
        0.000000000000314
       -0.000000000005748
       -0.000000000000469
       -0.000000000000718
       -0.000000000000119
        0.000000000000000
        0.000000000000000
        0.000000000000000
        0.000000000000000
       -0.000000000000015
        0.000000000000578
       -0.000000000000027
        0.000000000000000
        0.000000000000000
        0.000000000000000
        0.000000000000000
        0.000000000000000
        0.000000000000000
       -0.000000000000220
        0.000000000000040
        0.000000000000000
        0.000000000000000
        0.000000000000000
        0.000000000000000
        0.000000000000000
        0.000000000000215
       -0.000000000000648
        0.000000000000443
        0.000000000000275
        0.000000000000674
       -0.000000000000351
        0.000000000000000
        0.000000000000000
        0.000000000000000
       -0.000000000000487
        0.000000000005457
        0.000000000026690
       -0.000000000007640
       -0.000000000003582
        0.000000000000673
       -0.000000000000311
        0.000000000000000
       -0.000000000000026
        0.000000000000463
        0.000000000005892
       -0.000000000045939
       -0.000000000083056
       -0.000000000020231
       -0.000000000001063
        0.000000000000209
        0.000000000000000
       -0.000000000000026
        0.000000000001037
       -0.000000000003262
       -0.000000000059660
        0.000000000021224
        0.000000000078002
       -0.000000000003159
       -0.000000000000549
        0.000000000000024
        0.000000000000000
        0.000000000000014
       -0.000000000001787
        0.000000000009385
        0.000000000099913
        0.000000000079736
       -0.000000000003830
       -0.000000000000614
        0.000000000000024
        0.000000000000000
        0.000000000000295
       -0.000000000000418
        0.000000000000313
        0.000000000001517
       -0.000000000022442
       -0.000000000001645
        0.000000000000229
        0.000000000000000
        0.000000000000000
        0.000000000000000
        0.000000000000394
       -0.000000000000531
        0.000000000000120
       -0.000000000000663
        0.000000000000435
       -0.000000000000197
        0.000000000000000
        0.000000000000000
        0.000000000000000
        0.000000000000000
        0.000000000000000
       -0.000000000000002
        0.000000000000193
        0.000000000000000
        0.000000000000000
        0.000000000000000
        0.000000000000000
        0.000000000000000
        0.000000000000000
        0.000000000000000
        0.000000000000000
        0.000000000000000
        0.000000000000000
        0.000000000000000
        0.000000000000000
        0.000000000000000
        0.000000000000000
        0.000000000000415
       -0.000000000000534
        0.000000000000679
       -0.000000000000334
        0.000000000000000
        0.000000000000000
        0.000000000000000
        0.000000000000000
        0.000000000000231
       -0.000000000000958
        0.000000000003705
       -0.000000000001510
        0.000000000000535
       -0.000000000000946
        0.000000000000000
        0.000000000000000
        0.000000000000000
        0.000000000000034
        0.000000000001354
        0.000000000005410
        0.000000000003652
        0.000000000000049
        0.000000000000133
       -0.000000000000235
        0.000000000000000
        0.000000000000000
        0.000000000000044
        0.000000000001201
        0.000000000000142
        0.000000000000507
        0.000000000000246
       -0.000000000001332
       -0.000000000000024
        0.000000000000000
        0.000000000000000
        0.000000000000247
       -0.000000000000080
       -0.000000000000676
       -0.000000000003251
       -0.000000000004311
       -0.000000000001149
       -0.000000000000047
        0.000000000000000
        0.000000000000000
        0.000000000000000
        0.000000000001043
       -0.000000000000555
        0.000000000001376
       -0.000000000003398
        0.000000000000986
       -0.000000000000241
        0.000000000000000
        0.000000000000000
        0.000000000000000
        0.000000000000000
        0.000000000000410
       -0.000000000000700
        0.000000000000549
       -0.000000000000461
        0.000000000000000
        0.000000000000000
        0.000000000000000
        0.000000000000000
        0.000000000000000
        0.000000000000000
        0.000000000000000
        0.000000000000000
        0.000000000000000
        0.000000000000000
        0.000000000000000
        0.000000000000000
        0.000000000000000
        0.000000000000000
        0.000000000000000
        0.000000000000000
        0.000000000000000
        0.000000000000000
        0.000000000000000
        0.000000000000000
        0.000000000000000
        0.000000000000000
        0.000000000000000
        0.000000000000192
        0.000000000000138
        0.000000000000000
        0.000000000000000
        0.000000000000000
        0.000000000000000
        0.000000000000000
        0.000000000000000
        0.000000000000222
       -0.000000000000371
        0.000000000000587
       -0.000000000000276
        0.000000000000000
        0.000000000000000
        0.000000000000000
        0.000000000000000
       -0.000000000000003
        0.000000000000018
        0.000000000000565
        0.000000000000180
        0.000000000000131
       -0.000000000000224
        0.000000000000000
        0.000000000000000
        0.000000000000000
       -0.000000000000003
        0.000000000000060
        0.000000000000776
        0.000000000000018
       -0.000000000000810
       -0.000000000000008
        0.000000000000003
        0.000000000000000
        0.000000000000000
        0.000000000000000
        0.000000000000257
       -0.000000000000063
       -0.000000000000222
       -0.000000000000512
       -0.000000000000062
        0.000000000000003
        0.000000000000000
        0.000000000000000
        0.000000000000000
        0.000000000000000
        0.000000000000329
       -0.000000000000558
        0.000000000000346
       -0.000000000000250
        0.000000000000000
        0.000000000000000
        0.000000000000000
        0.000000000000000
        0.000000000000000
        0.000000000000000
       -0.000000000000108
       -0.000000000000219
        0.000000000000000
        0.000000000000000
        0.000000000000000
        0.000000000000000
        0.000000000000000
        0.000000000000000
        0.000000000000000
        0.000000000000000
        0.000000000000000
        0.000000000000000
        0.000000000000000
        0.000000000000000
        0.000000000000000
        0.000000000000000
        0.000000000000000
        0.000000000000000
        0.000000000000000
        0.000000000000000
        0.000000000000000
        0.000000000000000
        0.000000000000000
        0.000000000000000
        0.000000000000000
        0.000000000000000
        0.000000000000000
        0.000000000000000
        0.000000000000000
        0.000000000000000
        0.000000000000000
        0.000000000000000
        0.000000000000000
        0.000000000000000
        0.000000000000000
        0.000000000000000
        0.000000000000000
        0.000000000000000
        0.000000000000000
        0.000000000000000
        0.000000000000000
        0.000000000000000
        0.000000000000000
        0.000000000000000
       -0.000000000000026
        0.000000000000110
        0.000000000000000
        0.000000000000000
        0.000000000000000
        0.000000000000000
        0.000000000000000
        0.000000000000000
        0.000000000000000
       -0.000000000000026
        0.000000000000023
        0.000000000000024
        0.000000000000000
        0.000000000000000
        0.000000000000000
        0.000000000000000
        0.000000000000000
        0.000000000000000
        0.000000000000000
       -0.000000000000095
        0.000000000000024
        0.000000000000000
        0.000000000000000
        0.000000000000000
        0.000000000000000
        0.000000000000000
        0.000000000000000
        0.000000000000000
        0.000000000000000
        0.000000000000000
        0.000000000000000
        0.000000000000000
        0.000000000000000
        0.000000000000000
        0.000000000000000
        0.000000000000000
        0.000000000000000
        0.000000000000000
        0.000000000000000
        0.000000000000000
        0.000000000000000
        0.000000000000000
        0.000000000000000
        0.000000000000000
        0.000000000000000
        0.000000000000000
        0.000000000000000
        0.000000000000000
        0.000000000000000
        0.000000000000000
        0.000000000000000
END_DATAGRID_3D
END_BLOCK_DATAGRID_3D
