ATOMS
         C    7.558905    7.558905    7.558905
         H    8.755769    8.755769    8.755769
         H    6.362040    6.362040    8.755769
         H    8.755769    6.362040    6.362040
         H    6.362040    8.755769    6.362040
BEGIN_BLOCK_DATAGRID_3D
units: coords = b, function = sqrt(b^-3)
BEGIN_DATAGRID_3D_function
      9      9      9
0.0 0.0 0.0
   15.117809    0.000000    0.000000
    0.000000   15.117809    0.000000
    0.000000    0.000000   15.117809
        0.000000000000000
        0.000000000000000
        0.000000000000000
        0.000000000000000
        0.000000000000000
        0.000000000000000
        0.000000000000000
        0.000000000000000
        0.000000000000000
        0.000000000000000
        0.000000000000000
        0.000000000000000
        0.000000000000000
        0.000000000000000
        0.000000000000000
        0.000000000000000
        0.000000000000000
        0.000000000000000
        0.000000000000000
        0.000000000000000
        0.000000000000000
        0.000000000000000
        0.000000000000000
        0.000000000000000
        0.000000000000000
        0.000000000000000
        0.000000000000000
        0.000000000000000
        0.000000000000000
        0.000000000000000
        0.000000000000000
       -0.000003562902741
        0.000001348841380
        0.000000000000000
        0.000000000000000
        0.000000000000000
        0.000000000000000
        0.000000000000000
        0.000000000000000
       -0.000007881125678
       -0.000003299802907
        0.000003463993809
        0.000000000000000
        0.000000000000000
        0.000000000000000
        0.000000000000000
        0.000000000000000
        0.000000000000000
       -0.000005118053370
       -0.000000864150191
        0.000000000000000
        0.000000000000000
        0.000000000000000
        0.000000000000000
        0.000000000000000
        0.000000000000000
        0.000000000000000
        0.000000000000000
        0.000000000000000
        0.000000000000000
        0.000000000000000
        0.000000000000000
        0.000000000000000
        0.000000000000000
        0.000000000000000
        0.000000000000000
        0.000000000000000
        0.000000000000000
        0.000000000000000
        0.000000000000000
        0.000000000000000
        0.000000000000000
        0.000000000000000
        0.000000000000000
        0.000000000000000
        0.000000000000000
        0.000000000000000
        0.000000000000000
        0.000000000000000
        0.000000000000000
        0.000000000000000
        0.000000000000000
        0.000000000000000
        0.000000000000000
        0.000000000000000
        0.000000000000000
        0.000000000000000
        0.000000000000000
        0.000000000000000
        0.000000000000000
        0.000000000000000
        0.000000000000000
        0.000000000000000
        0.000000000000000
       -0.000007696309137
       -0.000002628938521
        0.000000000000000
        0.000000000000000
        0.000000000000000
        0.000000000000000
        0.000000000000000
        0.000000000000000
       -0.000027862758913
       -0.000023281394809
       -0.000000339386875
        0.000007718598598
        0.000000000000000
        0.000000000000000
        0.000000000000000
        0.000000000000000
       -0.000036756404093
       -0.000059652631217
       -0.000033281944015
        0.000015836401743
        0.000025402581876
        0.000011485395795
        0.000000000000000
        0.000000000000000
       -0.000017949886288
       -0.000051277799495
       -0.000067466089600
       -0.000019148432379
        0.000039500090286
        0.000039645629108
        0.000015126197367
        0.000000000000000
        0.000000000000000
       -0.000014144615956
       -0.000035666966822
       -0.000038608985458
        0.000005222412790
        0.000041187589431
        0.000029897183453
        0.000000000000000
        0.000000000000000
        0.000000000000000
        0.000000000000000
       -0.000012494602520
       -0.000010023332102
        0.000011490216153
        0.000020929638084
        0.000000000000000
        0.000000000000000
        0.000000000000000
        0.000000000000000
        0.000000000000000
        0.000000000000000
       -0.000000099728037
        0.000004785851962
        0.000000000000000
        0.000000000000000
        0.000000000000000
        0.000000000000000
        0.000000000000000
        0.000000000000000
        0.000000000000000
        0.000000000000000
        0.000000000000000
        0.000000000000000
        0.000000000000000
        0.000000000000000
        0.000000000000000
        0.000000000000000
        0.000000000000000
        0.000000000000000
        0.000000000000000
        0.000000000000000
        0.000000000000000
        0.000000000000000
        0.000000000000000
        0.000000000000000
        0.000000000000000
        0.000000000000000
        0.000000000000000
       -0.000037012031833
       -0.000036386285171
       -0.000010084066816
        0.000003608304688
        0.000000000000000
        0.000000000000000
        0.000000000000000
        0.000000000000000
       -0.000074829585546
       -0.000141591404573
       -0.000112654259120
        0.000001789506272
        0.000034029265990
        0.000016393376724
        0.000000000000000
        0.000000000000000
       -0.000053305294380
       -0.000180390984293
       -0.000309042506030
       -0.000191481040502
        0.000111453685441
        0.000119026989459
        0.000045992882320
        0.000000000000000
        0.000000000000000
       -0.000074961914422
       -0.000236161215778
       -0.000389802007966
       -0.000087682711379
        0.000280031171212
        0.000200112106422
        0.000067364950056
        0.000000000000000
        0.000000000000000
       -0.000053265008511
       -0.000151495028694
       -0.000199428730742
        0.000081124552964
        0.000246966994101
        0.000159877784206
        0.000049268473165
        0.000000000000000
        0.000000000000000
       -0.000019913177738
       -0.000048674264058
       -0.000034698724306
        0.000075842231385
        0.000120712528868
        0.000068360927684
        0.000000000000000
        0.000000000000000
        0.000000000000000
        0.000000000000000
       -0.000007204434693
        0.000002540538755
        0.000028415993980
        0.000032767168734
        0.000000000000000
        0.000000000000000
        0.000000000000000
        0.000000000000000
        0.000000000000000
        0.000000000000000
        0.000000000000000
        0.000000000000000
        0.000000000000000
        0.000000000000000
        0.000000000000000
        0.000000000000000
        0.000000000000000
        0.000000000000000
        0.000000000000000
        0.000000000000000
       -0.000014964545557
       -0.000007638856741
        0.000000000000000
        0.000000000000000
        0.000000000000000
        0.000000000000000
        0.000000000000000
       -0.000056833846920
       -0.000107014617913
       -0.000096817390128
       -0.000029076134756
        0.000007364203659
        0.000006941197896
        0.000000000000000
        0.000000000000000
       -0.000064231892350
       -0.000228122841212
       -0.000434021962336
       -0.000372332952613
       -0.000000648486550
        0.000081294433181
        0.000037700465184
        0.000000000000000
        0.000000000000000
       -0.000145381615486
       -0.000535468885794
       -0.001143080063425
       -0.000840069327665
        0.000469830452646
        0.000347959190254
        0.000110661130113
        0.000020339283452
       -0.000028487295987
       -0.000182391625508
       -0.000717216466033
       -0.001615199869747
       -0.000232604989090
        0.001375110410769
        0.000662001146483
        0.000173790844264
        0.000027580595249
       -0.000021350177371
       -0.000119793494730
       -0.000402238062866
       -0.000673205325024
        0.000597365677245
        0.001042441943870
        0.000511208546596
        0.000141401599472
        0.000000000000000
        0.000000000000000
       -0.000042610869496
       -0.000102931217134
       -0.000054894771936
        0.000314705989137
        0.000408668178547
        0.000221742390015
        0.000063455068796
        0.000000000000000
        0.000000000000000
       -0.000008306207911
       -0.000012450611617
        0.000019297001200
        0.000087282374723
        0.000102465575153
        0.000055919279489
        0.000000000000000
        0.000000000000000
        0.000000000000000
        0.000000000000000
        0.000000000000000
        0.000006469837978
        0.000013861775254
        0.000000000000000
        0.000000000000000
        0.000000000000000
        0.000000000000000
        0.000000000000000
        0.000000000000000
        0.000000000000000
       -0.000024572057853
       -0.000025935144227
       -0.000010210235034
        0.000000000000000
        0.000000000000000
        0.000000000000000
        0.000000000000000
       -0.000030548603210
       -0.000098741689917
       -0.000172901695508
       -0.000150499054388
       -0.000047525273139
        0.000006251565976
        0.000007774243133
        0.000000000000000
        0.000000000000000
       -0.000109313717496
       -0.000387859364510
       -0.000813902122443
       -0.000689151000021
       -0.000052789648225
        0.000099384384585
        0.000047081005038
        0.000000000000000
       -0.000033772643894
       -0.000224273904955
       -0.000960409790394
       -0.002566643136733
       -0.001828180331950
        0.000661915103988
        0.000510057744409
        0.000150315533834
        0.000025312047482
       -0.000044238154901
       -0.000256934698570
       -0.001177562502136
       -0.003126574373442
       -0.000000002526792
        0.003132044176364
        0.001181687170409
        0.000258286001357
        0.000044548607052
       -0.000025577744039
       -0.000152230431656
       -0.000521657221478
       -0.000695673072361
        0.001828179264485
        0.002606108580585
        0.000977200687477
        0.000228168891057
        0.000034454855497
        0.000000000000000
       -0.000048901000559
       -0.000106519271554
        0.000039305731198
        0.000689150795808
        0.000828741270109
        0.000396726000201
        0.000111965762976
        0.000000000000000
        0.000000000000000
       -0.000008504058609
       -0.000008297859752
        0.000044736200544
        0.000150499023621
        0.000175915005535
        0.000101162924537
        0.000031483796315
        0.000000000000000
        0.000000000000000
        0.000000000000000
        0.000000000000000
        0.000009749136056
        0.000025935141141
        0.000025059088895
        0.000000000000000
        0.000000000000000
        0.000000000000000
        0.000000000000000
        0.000000000000000
        0.000000000000000
       -0.000022017516915
       -0.000019830328402
        0.000000000000000
        0.000000000000000
        0.000000000000000
        0.000000000000000
        0.000000000000000
       -0.000028277556848
       -0.000088709420615
       -0.000150175527958
       -0.000123719352964
       -0.000038746456704
        0.000002110230858
        0.000000000000000
        0.000000000000000
        0.000000000000000
       -0.000096550376447
       -0.000339462133429
       -0.000692331480455
       -0.000495024854085
       -0.000057357741732
        0.000062729846450
        0.000030638565674
        0.000000000000000
       -0.000029256835968
       -0.000186409165397
       -0.000782901116530
       -0.002073903864903
       -0.001067482436519
        0.000338384576916
        0.000331925518582
        0.000108855671058
        0.000000000000000
       -0.000030863091946
       -0.000194112711103
       -0.000764850545839
       -0.001647116339347
        0.000232603921626
        0.001892913273804
        0.000825257285403
        0.000204693580627
        0.000032186307730
        0.000000000000000
       -0.000103566439129
       -0.000304722096027
       -0.000235334929355
        0.001310185005906
        0.002282085040123
        0.000841331296221
        0.000197151909169
        0.000030622883947
        0.000000000000000
       -0.000029369495188
       -0.000055356412745
        0.000083325066665
        0.000552651539061
        0.000749182129502
        0.000362648582756
        0.000102192628386
        0.000000000000000
        0.000000000000000
        0.000000000000000
       -0.000000993112486
        0.000043406781113
        0.000133254321273
        0.000160183655200
        0.000094150175847
        0.000029834960989
        0.000000000000000
        0.000000000000000
        0.000000000000000
        0.000000000000000
        0.000000000000000
        0.000020933093073
        0.000023213737474
        0.000000000000000
        0.000000000000000
        0.000000000000000
        0.000000000000000
        0.000000000000000
        0.000000000000000
        0.000000000000000
        0.000000000000000
        0.000000000000000
        0.000000000000000
        0.000000000000000
        0.000000000000000
        0.000000000000000
        0.000000000000000
       -0.000041344960413
       -0.000071375733706
       -0.000056287696431
       -0.000017797972239
        0.000000000000000
        0.000000000000000
        0.000000000000000
        0.000000000000000
       -0.000044645910217
       -0.000149947947108
       -0.000260464220237
       -0.000176673538033
       -0.000024207893385
        0.000022190479933
        0.000000000000000
        0.000000000000000
        0.000000000000000
       -0.000085896237432
       -0.000290898321869
       -0.000547797521649
       -0.000261443417911
        0.000104343442714
        0.000124594452259
        0.000044825161305
        0.000000000000000
        0.000000000000000
       -0.000083252803633
       -0.000258217420286
       -0.000384794383279
        0.000087682507166
        0.000495920450672
        0.000295998278364
        0.000091681817957
        0.000000000000000
        0.000000000000000
       -0.000040296093158
       -0.000103088269665
       -0.000041654389642
        0.000371799626950
        0.000637079957510
        0.000324916026478
        0.000093900211249
        0.000000000000000
        0.000000000000000
        0.000000000000000
       -0.000015405754480
        0.000045255299892
        0.000213485469246
        0.000293889881437
        0.000165288696553
        0.000048505226850
        0.000000000000000
        0.000000000000000
        0.000000000000000
        0.000000000000000
        0.000022068969334
        0.000064257968119
        0.000079039704235
        0.000045111147499
        0.000000000000000
        0.000000000000000
        0.000000000000000
        0.000000000000000
        0.000000000000000
        0.000000000000000
        0.000000000000000
        0.000000000000000
        0.000000000000000
        0.000000000000000
        0.000000000000000
        0.000000000000000
        0.000000000000000
        0.000000000000000
        0.000000000000000
        0.000000000000000
        0.000000000000000
        0.000000000000000
        0.000000000000000
        0.000000000000000
        0.000000000000000
        0.000000000000000
        0.000000000000000
       -0.000018785795125
       -0.000015178716085
        0.000000000000000
        0.000000000000000
        0.000000000000000
        0.000000000000000
        0.000000000000000
        0.000000000000000
       -0.000036054792586
       -0.000058811862849
       -0.000039361918604
       -0.000005960441589
        0.000000000000000
        0.000000000000000
        0.000000000000000
        0.000000000000000
       -0.000022439148803
       -0.000065493065410
       -0.000092269541300
       -0.000041659391031
        0.000022531529019
        0.000028132326894
        0.000000000000000
        0.000000000000000
        0.000000000000000
       -0.000021102775531
       -0.000055761750174
       -0.000060699405365
        0.000019148401612
        0.000088889642110
        0.000067768861406
        0.000024131842081
        0.000000000000000
        0.000000000000000
        0.000000000000000
       -0.000021070555313
       -0.000003955205582
        0.000069718875160
        0.000115271118701
        0.000076111797630
        0.000025290763091
        0.000000000000000
        0.000000000000000
        0.000000000000000
        0.000000000000000
        0.000012919696414
        0.000051153077757
        0.000069295024294
        0.000041000853589
        0.000000000000000
        0.000000000000000
        0.000000000000000
        0.000000000000000
        0.000000000000000
        0.000000000000000
        0.000018089168852
        0.000021547503321
        0.000000000000000
        0.000000000000000
        0.000000000000000
        0.000000000000000
        0.000000000000000
        0.000000000000000
        0.000000000000000
        0.000000000000000
        0.000000000000000
        0.000000000000000
        0.000000000000000
        0.000000000000000
        0.000000000000000
        0.000000000000000
        0.000000000000000
        0.000000000000000
        0.000000000000000
        0.000000000000000
        0.000000000000000
        0.000000000000000
        0.000000000000000
        0.000000000000000
        0.000000000000000
        0.000000000000000
        0.000000000000000
        0.000000000000000
        0.000000000000000
        0.000000000000000
        0.000000000000000
        0.000000000000000
        0.000000000000000
        0.000000000000000
        0.000000000000000
        0.000000000000000
        0.000000000000000
        0.000000000000000
        0.000000000000000
        0.000000000000000
        0.000000000000000
        0.000000000000000
        0.000000000000000
        0.000000000000000
       -0.000010429625567
       -0.000005104402957
        0.000000000000000
        0.000000000000000
        0.000000000000000
        0.000000000000000
        0.000000000000000
        0.000000000000000
        0.000000000000000
       -0.000006941796119
        0.000003299799821
        0.000011384860052
        0.000000000000000
        0.000000000000000
        0.000000000000000
        0.000000000000000
        0.000000000000000
        0.000000000000000
        0.000000000000000
        0.000009531450257
        0.000014226039352
        0.000000000000000
        0.000000000000000
        0.000000000000000
        0.000000000000000
        0.000000000000000
        0.000000000000000
        0.000000000000000
        0.000000000000000
        0.000000000000000
        0.000000000000000
        0.000000000000000
        0.000000000000000
        0.000000000000000
        0.000000000000000
        0.000000000000000
        0.000000000000000
        0.000000000000000
        0.000000000000000
        0.000000000000000
        0.000000000000000
        0.000000000000000
        0.000000000000000
        0.000000000000000
        0.000000000000000
        0.000000000000000
        0.000000000000000
        0.000000000000000
        0.000000000000000
        0.000000000000000
        0.000000000000000
END_DATAGRID_3D
END_BLOCK_DATAGRID_3D
