ATOMS
         C    7.558905    7.558905    7.558905
         H    8.755769    8.755769    8.755769
         H    6.362040    6.362040    8.755769
         H    8.755769    6.362040    6.362040
         H    6.362040    8.755769    6.362040
BEGIN_BLOCK_DATAGRID_3D
units: coords = b, function = sqrt(b^-3)
BEGIN_DATAGRID_3D_function
      9      9      9
0.0 0.0 0.0
   15.117809    0.000000    0.000000
    0.000000   15.117809    0.000000
    0.000000    0.000000   15.117809
        0.000000000000000
        0.000000000000000
        0.000000000000000
        0.000000000000000
        0.000000000000000
        0.000000000000000
        0.000000000000000
        0.000000000000000
        0.000000000000000
        0.000000000000000
        0.000000000000000
        0.000000000000000
        0.000000000000000
        0.000000000000000
        0.000000000000000
        0.000000000000000
        0.000000000000000
        0.000000000000000
        0.000000000000000
        0.000000000000000
        0.000000000000000
        0.000000000000000
        0.000000000000000
        0.000000000000000
        0.000000000000000
        0.000000000000000
        0.000000000000000
        0.000000000000000
        0.000000000000000
        0.000000000000000
        0.000000000000000
       -0.000030323908110
       -0.000029359953287
        0.000000000000000
        0.000000000000000
        0.000000000000000
        0.000000000000000
        0.000000000000000
        0.000000000000000
       -0.000018129040857
       -0.000035358821790
       -0.000029318486129
        0.000000000000000
        0.000000000000000
        0.000000000000000
        0.000000000000000
        0.000000000000000
        0.000000000000000
       -0.000011105320182
       -0.000017113874193
        0.000000000000000
        0.000000000000000
        0.000000000000000
        0.000000000000000
        0.000000000000000
        0.000000000000000
        0.000000000000000
        0.000000000000000
        0.000000000000000
        0.000000000000000
        0.000000000000000
        0.000000000000000
        0.000000000000000
        0.000000000000000
        0.000000000000000
        0.000000000000000
        0.000000000000000
        0.000000000000000
        0.000000000000000
        0.000000000000000
        0.000000000000000
        0.000000000000000
        0.000000000000000
        0.000000000000000
        0.000000000000000
        0.000000000000000
        0.000000000000000
        0.000000000000000
        0.000000000000000
        0.000000000000000
        0.000000000000000
        0.000000000000000
        0.000000000000000
        0.000000000000000
        0.000000000000000
        0.000000000000000
        0.000000000000000
        0.000000000000000
        0.000000000000000
        0.000000000000000
        0.000000000000000
        0.000000000000000
        0.000000000000000
        0.000000000000000
       -0.000031768403404
       -0.000031937987785
        0.000000000000000
        0.000000000000000
        0.000000000000000
        0.000000000000000
        0.000000000000000
        0.000000000000000
       -0.000054142109938
       -0.000107330876695
       -0.000107373166339
       -0.000054343533160
        0.000000000000000
        0.000000000000000
        0.000000000000000
        0.000000000000000
       -0.000028982673144
       -0.000106711774313
       -0.000203886543808
       -0.000199121900259
       -0.000103688269005
       -0.000029921279114
        0.000000000000000
        0.000000000000000
       -0.000002755429449
       -0.000028194156545
       -0.000107368015671
       -0.000205183703014
       -0.000193376909500
       -0.000098275566545
       -0.000028498661859
        0.000000000000000
        0.000000000000000
        0.000000626193471
       -0.000007611174587
       -0.000045540423059
       -0.000096783419673
       -0.000092080953649
       -0.000045794963864
        0.000000000000000
        0.000000000000000
        0.000000000000000
        0.000000000000000
        0.000002688189581
       -0.000003849049345
       -0.000019016696967
       -0.000020576960532
        0.000000000000000
        0.000000000000000
        0.000000000000000
        0.000000000000000
        0.000000000000000
        0.000000000000000
        0.000002692567472
        0.000000581611945
        0.000000000000000
        0.000000000000000
        0.000000000000000
        0.000000000000000
        0.000000000000000
        0.000000000000000
        0.000000000000000
        0.000000000000000
        0.000000000000000
        0.000000000000000
        0.000000000000000
        0.000000000000000
        0.000000000000000
        0.000000000000000
        0.000000000000000
        0.000000000000000
        0.000000000000000
        0.000000000000000
        0.000000000000000
        0.000000000000000
        0.000000000000000
        0.000000000000000
        0.000000000000000
        0.000000000000000
        0.000000000000000
       -0.000052440809215
       -0.000104894031752
       -0.000105561150108
       -0.000053579226962
        0.000000000000000
        0.000000000000000
        0.000000000000000
        0.000000000000000
       -0.000046427590683
       -0.000189938164737
       -0.000394630596338
       -0.000401616061895
       -0.000196058808238
       -0.000051749740097
        0.000000000000000
        0.000000000000000
       -0.000006286824295
       -0.000080168261632
       -0.000375670643407
       -0.000905550848488
       -0.000911409579162
       -0.000384757922987
       -0.000097511486991
        0.000000000000000
        0.000000000000000
        0.000004274017203
       -0.000045605525242
       -0.000345840342487
       -0.000939557697647
       -0.000837105105539
       -0.000349381004243
       -0.000089925579695
        0.000000000000000
        0.000000000000000
        0.000016499104301
        0.000031053569774
       -0.000034958939989
       -0.000276966020906
       -0.000294632565320
       -0.000146129812249
       -0.000039940297044
        0.000000000000000
        0.000000000000000
        0.000012843837184
        0.000037174093525
        0.000048244666296
        0.000000174013172
       -0.000036110611179
       -0.000025532944133
        0.000000000000000
        0.000000000000000
        0.000000000000000
        0.000000000000000
        0.000014723162486
        0.000024733379475
        0.000019488939190
        0.000006353066133
        0.000000000000000
        0.000000000000000
        0.000000000000000
        0.000000000000000
        0.000000000000000
        0.000000000000000
        0.000000000000000
        0.000000000000000
        0.000000000000000
        0.000000000000000
        0.000000000000000
        0.000000000000000
        0.000000000000000
        0.000000000000000
        0.000000000000000
        0.000000000000000
       -0.000028203780824
       -0.000027688697282
        0.000000000000000
        0.000000000000000
        0.000000000000000
        0.000000000000000
        0.000000000000000
       -0.000025249287081
       -0.000097904846929
       -0.000192072173270
       -0.000190770446378
       -0.000100334045540
       -0.000029076288781
        0.000000000000000
        0.000000000000000
       -0.000004255031256
       -0.000071292557146
       -0.000352430803338
       -0.000871921565421
       -0.000890564260855
       -0.000377741581268
       -0.000095969517984
        0.000000000000000
        0.000000000000000
        0.000010830564422
       -0.000065390938299
       -0.000709217441884
       -0.002556155070934
       -0.002706917634362
       -0.000840170234937
       -0.000170584373949
       -0.000023651422672
        0.000010120596245
        0.000050113145917
        0.000102585718314
       -0.000369180207323
       -0.002492458932292
       -0.002233117596966
       -0.000721521590779
       -0.000152816321921
       -0.000022049556600
        0.000011135555815
        0.000065631103819
        0.000242601108821
        0.000514148420781
       -0.000044515341446
       -0.000389354157834
       -0.000214439191395
       -0.000061727742804
        0.000000000000000
        0.000000000000000
        0.000040736950542
        0.000141534782364
        0.000293851474935
        0.000254424730314
        0.000073232772283
       -0.000005389692257
       -0.000007666218105
        0.000000000000000
        0.000000000000000
        0.000013908396406
        0.000045205336156
        0.000086193957269
        0.000089900528893
        0.000047324623266
        0.000013404522993
        0.000000000000000
        0.000000000000000
        0.000000000000000
        0.000000000000000
        0.000000000000000
        0.000015256784570
        0.000016387163872
        0.000000000000000
        0.000000000000000
        0.000000000000000
        0.000000000000000
        0.000000000000000
        0.000000000000000
        0.000000000000000
       -0.000015025374016
       -0.000031149796341
       -0.000026775773104
        0.000000000000000
        0.000000000000000
        0.000000000000000
        0.000000000000000
       -0.000000412707093
       -0.000019368280237
       -0.000087762340536
       -0.000180759149261
       -0.000177194605722
       -0.000092065964509
       -0.000027131571254
        0.000000000000000
        0.000000000000000
        0.000010661710294
       -0.000017397363521
       -0.000266979231027
       -0.000827715101688
       -0.000775217313384
       -0.000330650756767
       -0.000086153794698
        0.000000000000000
        0.000011103402890
        0.000057901125676
        0.000147807342180
       -0.000192260015689
       -0.002195762844127
       -0.002100499442288
       -0.000693267824374
       -0.000148451104819
       -0.000021627721774
        0.000020753516368
        0.000120536186108
        0.000552431780143
        0.001466774836780
        0.000000001185398
       -0.001469340894174
       -0.000554366792367
       -0.000121170124946
       -0.000020899159282
        0.000016739739532
        0.000118728955978
        0.000547477125671
        0.001722715636948
        0.002195763344909
        0.000567366263929
       -0.000004452102652
       -0.000029107898817
       -0.000006410821018
        0.000000000000000
        0.000063561813452
        0.000249326003818
        0.000630366875022
        0.000827715197491
        0.000411193887872
        0.000097909698422
        0.000011539930024
        0.000000000000000
        0.000000000000000
        0.000018733544797
        0.000069583915383
        0.000147888824190
        0.000180759163695
        0.000116962925203
        0.000041674432764
        0.000008714384414
        0.000000000000000
        0.000000000000000
        0.000000000000000
        0.000000000000000
        0.000021979275028
        0.000031149797789
        0.000019809706542
        0.000000000000000
        0.000000000000000
        0.000000000000000
        0.000000000000000
        0.000000000000000
        0.000000000000000
       -0.000007962877082
       -0.000013587126987
        0.000000000000000
        0.000000000000000
        0.000000000000000
        0.000000000000000
        0.000000000000000
        0.000003254203672
        0.000002252031571
       -0.000024794704671
       -0.000072806791010
       -0.000077217275224
       -0.000040628000001
        0.000000000000000
        0.000000000000000
        0.000000000000000
        0.000024547987357
        0.000066005917796
        0.000056695972040
       -0.000169831452780
       -0.000238043599429
       -0.000128065223050
       -0.000036476079137
        0.000000000000000
        0.000012605793298
        0.000078018239899
        0.000313385130043
        0.000774607307501
        0.000265061968678
       -0.000258435196500
       -0.000181101641198
       -0.000055675850808
        0.000000000000000
        0.000017722546177
        0.000126516935738
        0.000592698749538
        0.001899635828582
        0.002492459433073
        0.000699984418606
        0.000023801663753
       -0.000024742681715
       -0.000005988986192
        0.000000000000000
        0.000105958834633
        0.000459551077489
        0.001355875472227
        0.002335608950849
        0.001415907117540
        0.000282236486743
        0.000026179550482
       -0.000000256540434
        0.000000000000000
        0.000048166399907
        0.000204281632981
        0.000516953798945
        0.000787328418540
        0.000539403475655
        0.000169473884113
        0.000030341247238
        0.000000000000000
        0.000000000000000
        0.000000000000000
        0.000052377741042
        0.000127745293148
        0.000174978457480
        0.000129263765605
        0.000052710442310
        0.000011823430539
        0.000000000000000
        0.000000000000000
        0.000000000000000
        0.000000000000000
        0.000000000000000
        0.000025403746581
        0.000020382028572
        0.000000000000000
        0.000000000000000
        0.000000000000000
        0.000000000000000
        0.000000000000000
        0.000000000000000
        0.000000000000000
        0.000000000000000
        0.000000000000000
        0.000000000000000
        0.000000000000000
        0.000000000000000
        0.000000000000000
        0.000000000000000
        0.000008052892895
        0.000007559385635
       -0.000006413442839
       -0.000013375589228
        0.000000000000000
        0.000000000000000
        0.000000000000000
        0.000000000000000
        0.000017442871011
        0.000056005862096
        0.000090225597992
        0.000047129138996
       -0.000009162762825
       -0.000016947582559
        0.000000000000000
        0.000000000000000
        0.000000000000000
        0.000048785833598
        0.000176487130385
        0.000385506386964
        0.000361559298440
        0.000129821738174
        0.000012674896942
       -0.000004202000198
        0.000000000000000
        0.000000000000000
        0.000069949506543
        0.000277534165539
        0.000709227986481
        0.000939557793450
        0.000473081680027
        0.000116639945898
        0.000015311715021
        0.000000000000000
        0.000000000000000
        0.000050198192946
        0.000213157337468
        0.000540193639015
        0.000820957701608
        0.000560248793962
        0.000176490225832
        0.000031883216245
        0.000000000000000
        0.000000000000000
        0.000000000000000
        0.000088759840081
        0.000235132475616
        0.000347327489452
        0.000262903517799
        0.000102552453661
        0.000021303754397
        0.000000000000000
        0.000000000000000
        0.000000000000000
        0.000000000000000
        0.000059451072027
        0.000091818544550
        0.000073211881631
        0.000030723392431
        0.000000000000000
        0.000000000000000
        0.000000000000000
        0.000000000000000
        0.000000000000000
        0.000000000000000
        0.000000000000000
        0.000000000000000
        0.000000000000000
        0.000000000000000
        0.000000000000000
        0.000000000000000
        0.000000000000000
        0.000000000000000
        0.000000000000000
        0.000000000000000
        0.000000000000000
        0.000000000000000
        0.000000000000000
        0.000000000000000
        0.000000000000000
        0.000000000000000
        0.000000000000000
        0.000006167228216
        0.000004294009024
        0.000000000000000
        0.000000000000000
        0.000000000000000
        0.000000000000000
        0.000000000000000
        0.000000000000000
        0.000020087865800
        0.000036141814455
        0.000032092193319
        0.000013554437437
        0.000000000000000
        0.000000000000000
        0.000000000000000
        0.000000000000000
        0.000016536406606
        0.000055068542314
        0.000106939675657
        0.000113877157557
        0.000062188301692
        0.000018571486856
        0.000000000000000
        0.000000000000000
        0.000000000000000
        0.000021076267153
        0.000078409791692
        0.000167494499325
        0.000205183717447
        0.000133145228981
        0.000047884034801
        0.000010081475020
        0.000000000000000
        0.000000000000000
        0.000000000000000
        0.000056111127104
        0.000136552220532
        0.000186792828018
        0.000137615219486
        0.000056064665774
        0.000012668420872
        0.000000000000000
        0.000000000000000
        0.000000000000000
        0.000000000000000
        0.000061152372750
        0.000094255389493
        0.000075023897862
        0.000031487698629
        0.000000000000000
        0.000000000000000
        0.000000000000000
        0.000000000000000
        0.000000000000000
        0.000000000000000
        0.000026892784503
        0.000023062691220
        0.000000000000000
        0.000000000000000
        0.000000000000000
        0.000000000000000
        0.000000000000000
        0.000000000000000
        0.000000000000000
        0.000000000000000
        0.000000000000000
        0.000000000000000
        0.000000000000000
        0.000000000000000
        0.000000000000000
        0.000000000000000
        0.000000000000000
        0.000000000000000
        0.000000000000000
        0.000000000000000
        0.000000000000000
        0.000000000000000
        0.000000000000000
        0.000000000000000
        0.000000000000000
        0.000000000000000
        0.000000000000000
        0.000000000000000
        0.000000000000000
        0.000000000000000
        0.000000000000000
        0.000000000000000
        0.000000000000000
        0.000000000000000
        0.000000000000000
        0.000000000000000
        0.000000000000000
        0.000000000000000
        0.000000000000000
        0.000000000000000
        0.000000000000000
        0.000000000000000
        0.000000000000000
        0.000000000000000
        0.000018399227670
        0.000019913911079
        0.000000000000000
        0.000000000000000
        0.000000000000000
        0.000000000000000
        0.000000000000000
        0.000000000000000
        0.000000000000000
        0.000025082941869
        0.000035358823238
        0.000022352419567
        0.000000000000000
        0.000000000000000
        0.000000000000000
        0.000000000000000
        0.000000000000000
        0.000000000000000
        0.000000000000000
        0.000027523873868
        0.000022053284577
        0.000000000000000
        0.000000000000000
        0.000000000000000
        0.000000000000000
        0.000000000000000
        0.000000000000000
        0.000000000000000
        0.000000000000000
        0.000000000000000
        0.000000000000000
        0.000000000000000
        0.000000000000000
        0.000000000000000
        0.000000000000000
        0.000000000000000
        0.000000000000000
        0.000000000000000
        0.000000000000000
        0.000000000000000
        0.000000000000000
        0.000000000000000
        0.000000000000000
        0.000000000000000
        0.000000000000000
        0.000000000000000
        0.000000000000000
        0.000000000000000
        0.000000000000000
        0.000000000000000
        0.000000000000000
END_DATAGRID_3D
END_BLOCK_DATAGRID_3D
