ATOMS
         C    7.558905    7.558905    7.558905
         H    8.755769    8.755769    8.755769
         H    6.362040    6.362040    8.755769
         H    8.755769    6.362040    6.362040
         H    6.362040    8.755769    6.362040
BEGIN_BLOCK_DATAGRID_3D
units: coords = b, function = sqrt(b^-3)
BEGIN_DATAGRID_3D_function
      9      9      9
0.0 0.0 0.0
   15.117809    0.000000    0.000000
    0.000000   15.117809    0.000000
    0.000000    0.000000   15.117809
        0.000000000000000
        0.000000000000000
        0.000000000000000
        0.000000000000000
        0.000000000000000
        0.000000000000000
        0.000000000000000
        0.000000000000000
        0.000000000000000
        0.000000000000000
        0.000000000000000
        0.000000000000000
        0.000000000000000
        0.000000000000000
        0.000000000000000
        0.000000000000000
        0.000000000000000
        0.000000000000000
        0.000000000000000
        0.000000000000000
        0.000000000000000
        0.000000000000000
        0.000000000000000
        0.000000000000000
        0.000000000000000
        0.000000000000000
        0.000000000000000
        0.000000000000000
        0.000000000000000
        0.000000000000000
        0.000000000000000
       -0.000223506603333
       -0.000020718846840
        0.000000000000000
        0.000000000000000
        0.000000000000000
        0.000000000000000
        0.000000000000000
        0.000000000000000
       -0.000335879216128
       -0.000179002745704
        0.000090916741317
        0.000000000000000
        0.000000000000000
        0.000000000000000
        0.000000000000000
        0.000000000000000
        0.000000000000000
       -0.000186487280140
       -0.000021455871478
        0.000000000000000
        0.000000000000000
        0.000000000000000
        0.000000000000000
        0.000000000000000
        0.000000000000000
        0.000000000000000
        0.000000000000000
        0.000000000000000
        0.000000000000000
        0.000000000000000
        0.000000000000000
        0.000000000000000
        0.000000000000000
        0.000000000000000
        0.000000000000000
        0.000000000000000
        0.000000000000000
        0.000000000000000
        0.000000000000000
        0.000000000000000
        0.000000000000000
        0.000000000000000
        0.000000000000000
        0.000000000000000
        0.000000000000000
        0.000000000000000
        0.000000000000000
        0.000000000000000
        0.000000000000000
        0.000000000000000
        0.000000000000000
        0.000000000000000
        0.000000000000000
        0.000000000000000
        0.000000000000000
        0.000000000000000
        0.000000000000000
        0.000000000000000
        0.000000000000000
        0.000000000000000
        0.000000000000000
        0.000000000000000
        0.000000000000000
       -0.000466482823499
       -0.000234865700862
        0.000000000000000
        0.000000000000000
        0.000000000000000
        0.000000000000000
        0.000000000000000
        0.000000000000000
       -0.001379015379847
       -0.001372342522100
       -0.000402335514453
        0.000136464981487
        0.000000000000000
        0.000000000000000
        0.000000000000000
        0.000000000000000
       -0.001616802253000
       -0.002788465856669
       -0.001939942192907
        0.000070975848527
        0.000763279976609
        0.000389261274194
        0.000000000000000
        0.000000000000000
       -0.000741020960421
       -0.002116202407809
       -0.002839688356192
       -0.001072988768451
        0.001263643058838
        0.001449696608852
        0.000576363902130
        0.000000000000000
        0.000000000000000
       -0.000540136734503
       -0.001340077147884
       -0.001360631982694
        0.000363896895553
        0.001729069544500
        0.001225266894063
        0.000000000000000
        0.000000000000000
        0.000000000000000
        0.000000000000000
       -0.000400437535451
       -0.000174461656821
        0.000705836723143
        0.000987480020909
        0.000000000000000
        0.000000000000000
        0.000000000000000
        0.000000000000000
        0.000000000000000
        0.000000000000000
        0.000083990240553
        0.000301825765208
        0.000000000000000
        0.000000000000000
        0.000000000000000
        0.000000000000000
        0.000000000000000
        0.000000000000000
        0.000000000000000
        0.000000000000000
        0.000000000000000
        0.000000000000000
        0.000000000000000
        0.000000000000000
        0.000000000000000
        0.000000000000000
        0.000000000000000
        0.000000000000000
        0.000000000000000
        0.000000000000000
        0.000000000000000
        0.000000000000000
        0.000000000000000
        0.000000000000000
        0.000000000000000
        0.000000000000000
        0.000000000000000
       -0.001816137983299
       -0.002030132444552
       -0.000875142681698
       -0.000056342851163
        0.000000000000000
        0.000000000000000
        0.000000000000000
        0.000000000000000
       -0.003364103769800
       -0.006745331033815
       -0.006181650984098
       -0.001502754215920
        0.000692050037510
        0.000481010581820
        0.000000000000000
        0.000000000000000
       -0.002251352129343
       -0.007784865767206
       -0.013718663057540
       -0.010562114770120
        0.001627330339151
        0.003727341403618
        0.001608181488345
        0.000000000000000
        0.000000000000000
       -0.003071084426389
       -0.009422607181576
       -0.015686145807888
       -0.004699045575482
        0.009705111569395
        0.007402228430957
        0.002625160388563
        0.000000000000000
        0.000000000000000
       -0.002026428590568
       -0.005541202602253
       -0.006420511491016
        0.004581080531626
        0.010288866016782
        0.006596304637633
        0.002006400459830
        0.000000000000000
        0.000000000000000
       -0.000680327400216
       -0.001509248231881
       -0.000311106982715
        0.004161272233479
        0.005556769904242
        0.002982296251330
        0.000000000000000
        0.000000000000000
        0.000000000000000
        0.000000000000000
       -0.000142973967232
        0.000456895579475
        0.001584208406726
        0.001571186313786
        0.000000000000000
        0.000000000000000
        0.000000000000000
        0.000000000000000
        0.000000000000000
        0.000000000000000
        0.000000000000000
        0.000000000000000
        0.000000000000000
        0.000000000000000
        0.000000000000000
        0.000000000000000
        0.000000000000000
        0.000000000000000
        0.000000000000000
        0.000000000000000
       -0.000773190568321
       -0.000455108238693
        0.000000000000000
        0.000000000000000
        0.000000000000000
        0.000000000000000
        0.000000000000000
       -0.002580407421591
       -0.005137189594846
       -0.005069016447325
       -0.002190009706789
       -0.000127761787719
        0.000165318219265
        0.000000000000000
        0.000000000000000
       -0.002777834694482
       -0.010086493715490
       -0.019639480976768
       -0.019089381953012
       -0.003756923767571
        0.001850730333402
        0.001189946891262
        0.000000000000000
        0.000000000000000
       -0.006197995233218
       -0.022313629890238
       -0.049073562261548
       -0.043279461513271
        0.009272583524705
        0.011248936671486
        0.004111333622351
        0.000755530498104
       -0.001133829011577
       -0.007382015075349
       -0.028064769776799
       -0.063236946637245
       -0.012576023266688
        0.050203955061016
        0.024943249721528
        0.006855266348509
        0.001073196294525
       -0.000817069484556
       -0.004642796055674
       -0.014236574423100
       -0.020221991953041
        0.030246469937043
        0.043503979302251
        0.020869306325704
        0.005926214542530
        0.000000000000000
        0.000000000000000
       -0.001467944164716
       -0.003035293087814
        0.000769286015957
        0.015967861897741
        0.018195157412234
        0.009669755213431
        0.002709432478615
        0.000000000000000
        0.000000000000000
       -0.000241097130109
       -0.000150235485735
        0.001658547273465
        0.004542267720485
        0.004865408904159
        0.002512005205724
        0.000000000000000
        0.000000000000000
        0.000000000000000
        0.000000000000000
        0.000000000000000
        0.000393569252241
        0.000712557851269
        0.000000000000000
        0.000000000000000
        0.000000000000000
        0.000000000000000
        0.000000000000000
        0.000000000000000
        0.000000000000000
       -0.001134366744790
       -0.001246599645936
       -0.000571585491678
        0.000000000000000
        0.000000000000000
        0.000000000000000
        0.000000000000000
       -0.001348874289909
       -0.004420968277828
       -0.007960885479871
       -0.007472440791810
       -0.003014909902116
       -0.000220669422906
        0.000202179976593
        0.000000000000000
        0.000000000000000
       -0.004718060373956
       -0.016598389888665
       -0.035558501005243
       -0.032724797195688
       -0.006094240882688
        0.002528195460787
        0.001612584279257
        0.000000000000000
       -0.001382632575251
       -0.009374137944610
       -0.039409857791262
       -0.107424701084849
       -0.087581149048208
        0.016661162120569
        0.017671164452337
        0.005705787641973
        0.000960378026519
       -0.001728781859564
       -0.010362765728082
       -0.045382682350537
       -0.121457359793007
       -0.000000000000000
        0.121457359793007
        0.045382682350537
        0.010362765728082
        0.001728781859564
       -0.000983178524811
       -0.005847072820627
       -0.018354080143179
       -0.018445990586518
        0.087581149048210
        0.109209529550800
        0.040092773482105
        0.009515423123264
        0.001405433073543
        0.000000000000000
       -0.001718953371279
       -0.002914127194705
        0.005411325191846
        0.032724797195688
        0.036241416696086
        0.016984321622583
        0.004824429465978
        0.000000000000000
        0.000000000000000
       -0.000241359057091
        0.000114300330884
        0.002873624723462
        0.007472440791810
        0.008102170658525
        0.004527337369850
        0.001388053370408
        0.000000000000000
        0.000000000000000
        0.000000000000000
        0.000000000000000
        0.000548784993386
        0.001246599645936
        0.001157167243082
        0.000000000000000
        0.000000000000000
        0.000000000000000
        0.000000000000000
        0.000000000000000
        0.000000000000000
       -0.000987903618542
       -0.000932761668147
        0.000000000000000
        0.000000000000000
        0.000000000000000
        0.000000000000000
        0.000000000000000
       -0.001216035596044
       -0.003889132739013
       -0.006791332305091
       -0.005906778934662
       -0.002240591469137
       -0.000146298461627
        0.000000000000000
        0.000000000000000
        0.000000000000000
       -0.004102677014452
       -0.014482708234655
       -0.029623446479400
       -0.022563359934919
       -0.004246095525575
        0.001809191166457
        0.001071957707593
        0.000000000000000
       -0.001184096431105
       -0.007812510822756
       -0.032055255304762
       -0.085525763978975
       -0.047484077451009
        0.010286223454159
        0.012255162702575
        0.004305277267071
        0.000000000000000
       -0.001231982088485
       -0.007839195689888
       -0.029699168157642
       -0.062633745034123
        0.012576023266689
        0.075666736610353
        0.032820688212914
        0.008365944416728
        0.001292614805537
        0.000000000000000
       -0.004033496576383
       -0.010810839138041
       -0.004716640494860
        0.060517069027240
        0.096475172407313
        0.035042893056377
        0.008343973256079
        0.001245635417557
        0.000000000000000
       -0.001003555491726
       -0.001392452664399
        0.005690419090109
        0.025684879990192
        0.032611084231015
        0.015667270989067
        0.004380674287906
        0.000000000000000
        0.000000000000000
        0.000000000000000
        0.000214700677494
        0.002512372159824
        0.006433527661502
        0.007322794738415
        0.004167130012467
        0.001291814506888
        0.000000000000000
        0.000000000000000
        0.000000000000000
        0.000000000000000
        0.000000000000000
        0.000993394385199
        0.001049442604994
        0.000000000000000
        0.000000000000000
        0.000000000000000
        0.000000000000000
        0.000000000000000
        0.000000000000000
        0.000000000000000
        0.000000000000000
        0.000000000000000
        0.000000000000000
        0.000000000000000
        0.000000000000000
        0.000000000000000
        0.000000000000000
       -0.001781998181061
       -0.003141751845033
       -0.002611505256181
       -0.000910567899919
        0.000000000000000
        0.000000000000000
        0.000000000000000
        0.000000000000000
       -0.001869080213176
       -0.006383130226006
       -0.011129223685333
       -0.007888543443780
       -0.001531971515217
        0.000705143900390
        0.000000000000000
        0.000000000000000
        0.000000000000000
       -0.003544192588599
       -0.011976798720216
       -0.022433648972427
       -0.011176578568805
        0.003660195869877
        0.004882641742256
        0.001774989726377
        0.000000000000000
        0.000000000000000
       -0.003365929318846
       -0.010089909901794
       -0.014461030005509
        0.004699045575483
        0.020442064244003
        0.012110288652414
        0.003811853356673
        0.000000000000000
        0.000000000000000
       -0.001530038056864
       -0.003694080612683
       -0.000230398829119
        0.017157612807300
        0.027226830124293
        0.013790659918851
        0.003962439690823
        0.000000000000000
        0.000000000000000
        0.000000000000000
       -0.000323336381920
        0.002720532644790
        0.009908922194400
        0.012943084883969
        0.007200328420377
        0.002068397031572
        0.000000000000000
        0.000000000000000
        0.000000000000000
        0.000000000000000
        0.001155519569432
        0.003057429294008
        0.003559998947257
        0.001981314999457
        0.000000000000000
        0.000000000000000
        0.000000000000000
        0.000000000000000
        0.000000000000000
        0.000000000000000
        0.000000000000000
        0.000000000000000
        0.000000000000000
        0.000000000000000
        0.000000000000000
        0.000000000000000
        0.000000000000000
        0.000000000000000
        0.000000000000000
        0.000000000000000
        0.000000000000000
        0.000000000000000
        0.000000000000000
        0.000000000000000
        0.000000000000000
        0.000000000000000
        0.000000000000000
       -0.000815851675917
       -0.000680211489817
        0.000000000000000
        0.000000000000000
        0.000000000000000
        0.000000000000000
        0.000000000000000
        0.000000000000000
       -0.001524534612843
       -0.002510394608737
       -0.001733133572599
       -0.000326861607042
        0.000000000000000
        0.000000000000000
        0.000000000000000
        0.000000000000000
       -0.000916995991649
       -0.002699291076864
       -0.003772153048931
       -0.001728408109730
        0.000895747890522
        0.001140439850035
        0.000000000000000
        0.000000000000000
        0.000000000000000
       -0.000849212386579
       -0.002190465539135
       -0.002247572400217
        0.001072988768451
        0.003823617697571
        0.002856971338092
        0.001013869444870
        0.000000000000000
        0.000000000000000
        0.000000000000000
       -0.000748904491097
        0.000163648421647
        0.003304453407084
        0.005061809183099
        0.003276088248139
        0.001067871451959
        0.000000000000000
        0.000000000000000
        0.000000000000000
        0.000000000000000
        0.000718396965980
        0.002399639371556
        0.003087191780012
        0.001788507166807
        0.000000000000000
        0.000000000000000
        0.000000000000000
        0.000000000000000
        0.000000000000000
        0.000000000000000
        0.000844868548109
        0.000966727136226
        0.000000000000000
        0.000000000000000
        0.000000000000000
        0.000000000000000
        0.000000000000000
        0.000000000000000
        0.000000000000000
        0.000000000000000
        0.000000000000000
        0.000000000000000
        0.000000000000000
        0.000000000000000
        0.000000000000000
        0.000000000000000
        0.000000000000000
        0.000000000000000
        0.000000000000000
        0.000000000000000
        0.000000000000000
        0.000000000000000
        0.000000000000000
        0.000000000000000
        0.000000000000000
        0.000000000000000
        0.000000000000000
        0.000000000000000
        0.000000000000000
        0.000000000000000
        0.000000000000000
        0.000000000000000
        0.000000000000000
        0.000000000000000
        0.000000000000000
        0.000000000000000
        0.000000000000000
        0.000000000000000
        0.000000000000000
        0.000000000000000
        0.000000000000000
        0.000000000000000
        0.000000000000000
        0.000000000000000
       -0.000407847086161
       -0.000198747945399
        0.000000000000000
        0.000000000000000
        0.000000000000000
        0.000000000000000
        0.000000000000000
        0.000000000000000
        0.000000000000000
       -0.000249702535276
        0.000179002745704
        0.000494665010087
        0.000000000000000
        0.000000000000000
        0.000000000000000
        0.000000000000000
        0.000000000000000
        0.000000000000000
        0.000000000000000
        0.000443710420211
        0.000615053213140
        0.000000000000000
        0.000000000000000
        0.000000000000000
        0.000000000000000
        0.000000000000000
        0.000000000000000
        0.000000000000000
        0.000000000000000
        0.000000000000000
        0.000000000000000
        0.000000000000000
        0.000000000000000
        0.000000000000000
        0.000000000000000
        0.000000000000000
        0.000000000000000
        0.000000000000000
        0.000000000000000
        0.000000000000000
        0.000000000000000
        0.000000000000000
        0.000000000000000
        0.000000000000000
        0.000000000000000
        0.000000000000000
        0.000000000000000
        0.000000000000000
        0.000000000000000
        0.000000000000000
        0.000000000000000
END_DATAGRID_3D
END_BLOCK_DATAGRID_3D
