ATOMS
         C    7.558905    7.558905    7.558905
         H    8.755769    8.755769    8.755769
         H    6.362040    6.362040    8.755769
         H    8.755769    6.362040    6.362040
         H    6.362040    8.755769    6.362040
BEGIN_BLOCK_DATAGRID_3D
units: coords = b, function = sqrt(b^-3)
BEGIN_DATAGRID_3D_function
      9      9      9
0.0 0.0 0.0
   15.117809    0.000000    0.000000
    0.000000   15.117809    0.000000
    0.000000    0.000000   15.117809
        0.000000000000000
        0.000000000000000
        0.000000000000000
        0.000000000000000
        0.000000000000000
        0.000000000000000
        0.000000000000000
        0.000000000000000
        0.000000000000000
        0.000000000000000
        0.000000000000000
        0.000000000000000
        0.000000000000000
        0.000000000000000
        0.000000000000000
        0.000000000000000
        0.000000000000000
        0.000000000000000
        0.000000000000000
        0.000000000000000
        0.000000000000000
        0.000000000000000
        0.000000000000000
        0.000000000000000
        0.000000000000000
        0.000000000000000
        0.000000000000000
        0.000000000000000
        0.000000000000000
        0.000000000000000
        0.000000000000000
       -0.000836367938919
       -0.000898169086512
        0.000000000000000
        0.000000000000000
        0.000000000000000
        0.000000000000000
        0.000000000000000
        0.000000000000000
       -0.000177333506343
       -0.000711974424087
       -0.000796992425033
        0.000000000000000
        0.000000000000000
        0.000000000000000
        0.000000000000000
        0.000000000000000
        0.000000000000000
        0.000074017130947
       -0.000137957992457
        0.000000000000000
        0.000000000000000
        0.000000000000000
        0.000000000000000
        0.000000000000000
        0.000000000000000
        0.000000000000000
        0.000000000000000
        0.000000000000000
        0.000000000000000
        0.000000000000000
        0.000000000000000
        0.000000000000000
        0.000000000000000
        0.000000000000000
        0.000000000000000
        0.000000000000000
        0.000000000000000
        0.000000000000000
        0.000000000000000
        0.000000000000000
        0.000000000000000
        0.000000000000000
        0.000000000000000
        0.000000000000000
        0.000000000000000
        0.000000000000000
        0.000000000000000
        0.000000000000000
        0.000000000000000
        0.000000000000000
        0.000000000000000
        0.000000000000000
        0.000000000000000
        0.000000000000000
        0.000000000000000
        0.000000000000000
        0.000000000000000
        0.000000000000000
        0.000000000000000
        0.000000000000000
        0.000000000000000
        0.000000000000000
        0.000000000000000
       -0.001197801186080
       -0.001234295045380
        0.000000000000000
        0.000000000000000
        0.000000000000000
        0.000000000000000
        0.000000000000000
        0.000000000000000
       -0.001639001661757
       -0.003683466592614
       -0.003969874646940
       -0.002099361496526
        0.000000000000000
        0.000000000000000
        0.000000000000000
        0.000000000000000
       -0.000244447124621
       -0.002389715271770
       -0.005973296139502
       -0.006762764097354
       -0.003823903586792
       -0.001156135071602
        0.000000000000000
        0.000000000000000
        0.000412289393705
        0.000679066817451
       -0.000696532634275
       -0.004267758896463
       -0.005572108321512
       -0.003330060133207
       -0.001067204567144
        0.000000000000000
        0.000000000000000
        0.000556035511451
        0.001529721828750
        0.001633221643783
       -0.000295344816286
       -0.001823980313009
       -0.001312865086390
        0.000000000000000
        0.000000000000000
        0.000000000000000
        0.000000000000000
        0.001049423930796
        0.001675692888899
        0.001032473276858
        0.000081689450746
        0.000000000000000
        0.000000000000000
        0.000000000000000
        0.000000000000000
        0.000000000000000
        0.000000000000000
        0.000634195485229
        0.000542886012641
        0.000000000000000
        0.000000000000000
        0.000000000000000
        0.000000000000000
        0.000000000000000
        0.000000000000000
        0.000000000000000
        0.000000000000000
        0.000000000000000
        0.000000000000000
        0.000000000000000
        0.000000000000000
        0.000000000000000
        0.000000000000000
        0.000000000000000
        0.000000000000000
        0.000000000000000
        0.000000000000000
        0.000000000000000
        0.000000000000000
        0.000000000000000
        0.000000000000000
        0.000000000000000
        0.000000000000000
        0.000000000000000
       -0.002002696979862
       -0.004230761821008
       -0.004363260282311
       -0.002259781720680
        0.000000000000000
        0.000000000000000
        0.000000000000000
        0.000000000000000
       -0.001156692754574
       -0.006247405991120
       -0.014372195946028
       -0.015776949533550
       -0.008080186486751
       -0.002192488474418
        0.000000000000000
        0.000000000000000
        0.000549714151762
       -0.000150821012595
       -0.008324164734237
       -0.028189188459734
       -0.033131506751743
       -0.015121980027639
       -0.004052271397405
        0.000000000000000
        0.000000000000000
        0.001874134929420
        0.004635119764493
        0.001861842690012
       -0.018690217595291
       -0.025651105757730
       -0.012671074697768
       -0.003647775377054
        0.000000000000000
        0.000000000000000
        0.002388714570047
        0.007907438277493
        0.014066869632785
        0.004399925392016
       -0.005317680608553
       -0.004576621141389
       -0.001523997105606
        0.000000000000000
        0.000000000000000
        0.001399715847217
        0.004829821742267
        0.008562407783404
        0.006336241012754
        0.001519963837136
       -0.000361927459915
        0.000000000000000
        0.000000000000000
        0.000000000000000
        0.000000000000000
        0.001467009093479
        0.002699703454953
        0.002457121373374
        0.001028414026019
        0.000000000000000
        0.000000000000000
        0.000000000000000
        0.000000000000000
        0.000000000000000
        0.000000000000000
        0.000000000000000
        0.000000000000000
        0.000000000000000
        0.000000000000000
        0.000000000000000
        0.000000000000000
        0.000000000000000
        0.000000000000000
        0.000000000000000
        0.000000000000000
       -0.001293716707720
       -0.001259590314342
        0.000000000000000
        0.000000000000000
        0.000000000000000
        0.000000000000000
        0.000000000000000
       -0.001046187152593
       -0.004343903456853
       -0.008576752577922
       -0.008643952245206
       -0.004565269316597
       -0.001342460463967
        0.000000000000000
        0.000000000000000
        0.000111669441896
       -0.002065824497204
       -0.013250411374363
       -0.035284056412480
       -0.037611320869432
       -0.016683360415550
       -0.004400251491840
        0.000000000000000
        0.000000000000000
        0.001877429522507
        0.002432735684159
       -0.016873151898170
       -0.090295117497678
       -0.108264142811382
       -0.035732123678309
       -0.007854829439986
       -0.001107980953260
        0.000821328461249
        0.004988347498119
        0.017354121827586
        0.026750037520027
       -0.050020500453166
       -0.078588106456467
       -0.029769810955076
       -0.007083464083931
       -0.001062492045830
        0.000863212727691
        0.005740964323553
        0.023848944684487
        0.064713421121620
        0.038457048561238
       -0.005279584386714
       -0.008177460068189
       -0.002958423559606
        0.000000000000000
        0.000000000000000
        0.003294531309243
        0.011971821597806
        0.025728141875609
        0.022868367284990
        0.007505686990333
        0.000408268051179
       -0.000383735817508
        0.000000000000000
        0.000000000000000
        0.001041053654848
        0.003459549134000
        0.006530087128774
        0.006481635992110
        0.003262909419754
        0.000774120776981
        0.000000000000000
        0.000000000000000
        0.000000000000000
        0.000000000000000
        0.000000000000000
        0.001014822088773
        0.001052553123139
        0.000000000000000
        0.000000000000000
        0.000000000000000
        0.000000000000000
        0.000000000000000
        0.000000000000000
        0.000000000000000
       -0.000841692140389
       -0.001600237788123
       -0.001348208396186
        0.000000000000000
        0.000000000000000
        0.000000000000000
        0.000000000000000
       -0.000093457525543
       -0.001238547484888
       -0.004957477738163
       -0.009592239307580
       -0.009131955531143
       -0.004719840255477
       -0.001378533564440
        0.000000000000000
        0.000000000000000
        0.000503815855475
       -0.001335284313678
       -0.014672380175453
       -0.042008239976570
       -0.038796503571852
       -0.016726373960591
       -0.004490260270930
        0.000000000000000
        0.000614318596004
        0.003330858832651
        0.007914766914867
       -0.010015115513187
       -0.112426362939406
       -0.106496424745851
       -0.035820340816451
       -0.008039854855142
       -0.001156359248182
        0.001227628127360
        0.007358720601247
        0.032226771145442
        0.086248285364571
       -0.000000000000000
       -0.086248285364570
       -0.032226771145441
       -0.007358720601246
       -0.001227628127360
        0.001065671412215
        0.007477900158255
        0.033104077980508
        0.099397359230733
        0.112426362939407
        0.017114181028306
       -0.005198504078923
       -0.002768904135765
       -0.000523630760036
        0.000000000000000
        0.004067182553686
        0.015191349886450
        0.036080240735908
        0.042008239976570
        0.017388643011396
        0.002870308387820
       -0.000080738138231
        0.000000000000000
        0.000000000000000
        0.001222700740957
        0.004296762538233
        0.008570000834257
        0.009592239307580
        0.005519432435050
        0.001661625202132
        0.000249290349026
        0.000000000000000
        0.000000000000000
        0.000000000000000
        0.000000000000000
        0.001257520560218
        0.001600237788123
        0.000932379976356
        0.000000000000000
        0.000000000000000
        0.000000000000000
        0.000000000000000
        0.000000000000000
        0.000000000000000
       -0.000592778335195
       -0.000896183828855
        0.000000000000000
        0.000000000000000
        0.000000000000000
        0.000000000000000
        0.000000000000000
       -0.000006326740040
       -0.000591146725662
       -0.002885236714792
       -0.005512680691384
       -0.005126822842139
       -0.002454036680814
        0.000000000000000
        0.000000000000000
        0.000000000000000
        0.000661231651005
        0.000467915110223
       -0.005238466570239
       -0.018184827334825
       -0.017411078250433
       -0.008559601529401
       -0.002301473381924
        0.000000000000000
        0.000557838489378
        0.003103694112831
        0.009023422599152
        0.010379291628199
       -0.026216422761361
       -0.032917464890986
       -0.015344611069943
       -0.004307077903654
        0.000000000000000
        0.000858661546969
        0.005820411492788
        0.023664723067789
        0.062632206197518
        0.050020500453164
       -0.010794137261078
       -0.011249033940299
       -0.003725294906975
       -0.000617497962388
        0.000000000000000
        0.005388071940753
        0.021089335453974
        0.055070201175870
        0.078054491697800
        0.033171430061563
        0.002859756394670
       -0.000989828996398
       -0.000313070263809
        0.000000000000000
        0.002573539757535
        0.010217157975426
        0.023155802634464
        0.030600516462315
        0.017121645564061
        0.004243623707521
        0.000444488531591
        0.000000000000000
        0.000000000000000
        0.000000000000000
        0.002726103056425
        0.006207816879238
        0.007607797277197
        0.004999101831225
        0.001696866908259
        0.000307733549160
        0.000000000000000
        0.000000000000000
        0.000000000000000
        0.000000000000000
        0.000000000000000
        0.001137347413436
        0.000837546560764
        0.000000000000000
        0.000000000000000
        0.000000000000000
        0.000000000000000
        0.000000000000000
        0.000000000000000
        0.000000000000000
        0.000000000000000
        0.000000000000000
        0.000000000000000
        0.000000000000000
        0.000000000000000
        0.000000000000000
        0.000000000000000
       -0.000100063957772
       -0.000793155759948
       -0.001727625919357
       -0.001497526853544
        0.000000000000000
        0.000000000000000
        0.000000000000000
        0.000000000000000
        0.000410648182803
        0.000774648094728
       -0.000438495771777
       -0.003689462328242
       -0.004378020035485
       -0.002256566726129
        0.000000000000000
        0.000000000000000
        0.000000000000000
        0.001567048390201
        0.004532298430535
        0.006422805672586
        0.000283614558149
       -0.004587710651547
       -0.003574712336834
       -0.001161212093826
        0.000000000000000
        0.000000000000000
        0.002696863479741
        0.009220945808278
        0.019546017870443
        0.018690217595291
        0.004243245197274
       -0.001184990875004
       -0.000923223032107
        0.000000000000000
        0.000000000000000
        0.002135495047669
        0.008302154490818
        0.018229555994338
        0.023505648509568
        0.012641831446372
        0.002682243319611
        0.000096508437156
        0.000000000000000
        0.000000000000000
        0.000000000000000
        0.003775186940618
        0.009105462189469
        0.011725417261516
        0.007653037521923
        0.002475716649756
        0.000382124444398
        0.000000000000000
        0.000000000000000
        0.000000000000000
        0.000000000000000
        0.002471809807388
        0.003501266366991
        0.002456712587306
        0.000892836584973
        0.000000000000000
        0.000000000000000
        0.000000000000000
        0.000000000000000
        0.000000000000000
        0.000000000000000
        0.000000000000000
        0.000000000000000
        0.000000000000000
        0.000000000000000
        0.000000000000000
        0.000000000000000
        0.000000000000000
        0.000000000000000
        0.000000000000000
        0.000000000000000
        0.000000000000000
        0.000000000000000
        0.000000000000000
        0.000000000000000
        0.000000000000000
        0.000000000000000
        0.000000000000000
       -0.000114492158628
       -0.000274189903903
        0.000000000000000
        0.000000000000000
        0.000000000000000
        0.000000000000000
        0.000000000000000
        0.000000000000000
        0.000317521204911
        0.000230854806106
       -0.000302977822841
       -0.000550802278271
        0.000000000000000
        0.000000000000000
        0.000000000000000
        0.000000000000000
        0.000478691403356
        0.001338680579588
        0.002011628770199
        0.001264300117011
       -0.000039933109377
       -0.000367050817443
        0.000000000000000
        0.000000000000000
        0.000000000000000
        0.000716953821709
        0.002379148235894
        0.004309055730369
        0.004267758896463
        0.001959585225419
        0.000271845079862
       -0.000062038648270
        0.000000000000000
        0.000000000000000
        0.000000000000000
        0.001924363028453
        0.004253628694155
        0.005004340838776
        0.003117913683372
        0.000955501178453
        0.000121408156794
        0.000000000000000
        0.000000000000000
        0.000000000000000
        0.000000000000000
        0.002108114489282
        0.002953971138596
        0.002063326951935
        0.000732416360818
        0.000000000000000
        0.000000000000000
        0.000000000000000
        0.000000000000000
        0.000000000000000
        0.000000000000000
        0.000929105077342
        0.000714591718778
        0.000000000000000
        0.000000000000000
        0.000000000000000
        0.000000000000000
        0.000000000000000
        0.000000000000000
        0.000000000000000
        0.000000000000000
        0.000000000000000
        0.000000000000000
        0.000000000000000
        0.000000000000000
        0.000000000000000
        0.000000000000000
        0.000000000000000
        0.000000000000000
        0.000000000000000
        0.000000000000000
        0.000000000000000
        0.000000000000000
        0.000000000000000
        0.000000000000000
        0.000000000000000
        0.000000000000000
        0.000000000000000
        0.000000000000000
        0.000000000000000
        0.000000000000000
        0.000000000000000
        0.000000000000000
        0.000000000000000
        0.000000000000000
        0.000000000000000
        0.000000000000000
        0.000000000000000
        0.000000000000000
        0.000000000000000
        0.000000000000000
        0.000000000000000
        0.000000000000000
        0.000000000000000
        0.000000000000000
        0.000348026622631
        0.000294327286741
        0.000000000000000
        0.000000000000000
        0.000000000000000
        0.000000000000000
        0.000000000000000
        0.000000000000000
        0.000000000000000
        0.000593161926172
        0.000711974424087
        0.000381164005204
        0.000000000000000
        0.000000000000000
        0.000000000000000
        0.000000000000000
        0.000000000000000
        0.000000000000000
        0.000000000000000
        0.000679998644635
        0.000476125332935
        0.000000000000000
        0.000000000000000
        0.000000000000000
        0.000000000000000
        0.000000000000000
        0.000000000000000
        0.000000000000000
        0.000000000000000
        0.000000000000000
        0.000000000000000
        0.000000000000000
        0.000000000000000
        0.000000000000000
        0.000000000000000
        0.000000000000000
        0.000000000000000
        0.000000000000000
        0.000000000000000
        0.000000000000000
        0.000000000000000
        0.000000000000000
        0.000000000000000
        0.000000000000000
        0.000000000000000
        0.000000000000000
        0.000000000000000
        0.000000000000000
        0.000000000000000
        0.000000000000000
        0.000000000000000
END_DATAGRID_3D
END_BLOCK_DATAGRID_3D
