ATOMS
         C    7.558905    7.558905    7.558905
         H    8.755769    8.755769    8.755769
         H    6.362040    6.362040    8.755769
         H    8.755769    6.362040    6.362040
         H    6.362040    8.755769    6.362040
BEGIN_BLOCK_DATAGRID_3D
units: coords = b, function = sqrt(b^-3)
BEGIN_DATAGRID_3D_function
      9      9      9
0.0 0.0 0.0
   15.117809    0.000000    0.000000
    0.000000   15.117809    0.000000
    0.000000    0.000000   15.117809
        0.000000000000000
        0.000000000000000
        0.000000000000000
        0.000000000000000
        0.000000000000000
        0.000000000000000
        0.000000000000000
        0.000000000000000
        0.000000000000000
        0.000000000000000
        0.000000000000000
        0.000000000000000
        0.000000000000000
        0.000000000000000
        0.000000000000000
        0.000000000000000
        0.000000000000000
        0.000000000000000
        0.000000000000000
        0.000000000000000
        0.000000000000000
        0.000000000000000
        0.000000000000000
        0.000000000000000
        0.000000000000000
        0.000000000000000
        0.000000000000000
        0.000000000000000
        0.000000000000000
        0.000000000000000
        0.000000000000000
        0.001241831250044
        0.000997836784794
        0.000000000000000
        0.000000000000000
        0.000000000000000
        0.000000000000000
        0.000000000000000
        0.000000000000000
        0.001465383691827
        0.002008927528472
        0.001283802401135
        0.000000000000000
        0.000000000000000
        0.000000000000000
        0.000000000000000
        0.000000000000000
        0.000000000000000
        0.001327614095414
        0.001507354842918
        0.000000000000000
        0.000000000000000
        0.000000000000000
        0.000000000000000
        0.000000000000000
        0.000000000000000
        0.000000000000000
        0.000000000000000
        0.000000000000000
        0.000000000000000
        0.000000000000000
        0.000000000000000
        0.000000000000000
        0.000000000000000
        0.000000000000000
        0.000000000000000
        0.000000000000000
        0.000000000000000
        0.000000000000000
        0.000000000000000
        0.000000000000000
        0.000000000000000
        0.000000000000000
        0.000000000000000
        0.000000000000000
        0.000000000000000
        0.000000000000000
        0.000000000000000
        0.000000000000000
        0.000000000000000
        0.000000000000000
        0.000000000000000
        0.000000000000000
        0.000000000000000
        0.000000000000000
        0.000000000000000
        0.000000000000000
        0.000000000000000
        0.000000000000000
        0.000000000000000
        0.000000000000000
        0.000000000000000
        0.000000000000000
        0.000000000000000
        0.000581279884032
        0.000501322075611
        0.000000000000000
        0.000000000000000
        0.000000000000000
        0.000000000000000
        0.000000000000000
        0.000000000000000
        0.001786735843343
        0.002811795981664
        0.002226103115214
        0.000947213998623
        0.000000000000000
        0.000000000000000
        0.000000000000000
        0.000000000000000
        0.002259785590922
        0.005643228246963
        0.007735100835643
        0.005812822417293
        0.002381696599990
        0.000584634361468
        0.000000000000000
        0.000000000000000
        0.001127442061319
        0.004291620021156
        0.009525042768863
        0.012042031345411
        0.008162734988516
        0.003188499024757
        0.000720485443132
        0.000000000000000
        0.000000000000000
        0.001108623830715
        0.004091632684215
        0.008660842218426
        0.009952676921736
        0.006246256502042
        0.002134371369334
        0.000000000000000
        0.000000000000000
        0.000000000000000
        0.000000000000000
        0.002015320058236
        0.004247226168991
        0.004668323064250
        0.002607421116913
        0.000000000000000
        0.000000000000000
        0.000000000000000
        0.000000000000000
        0.000000000000000
        0.000000000000000
        0.001191936116573
        0.001266647620418
        0.000000000000000
        0.000000000000000
        0.000000000000000
        0.000000000000000
        0.000000000000000
        0.000000000000000
        0.000000000000000
        0.000000000000000
        0.000000000000000
        0.000000000000000
        0.000000000000000
        0.000000000000000
        0.000000000000000
        0.000000000000000
        0.000000000000000
        0.000000000000000
        0.000000000000000
        0.000000000000000
        0.000000000000000
        0.000000000000000
        0.000000000000000
        0.000000000000000
        0.000000000000000
        0.000000000000000
        0.000000000000000
        0.000686500161289
        0.001156141622311
        0.001036049542085
        0.000461917526683
        0.000000000000000
        0.000000000000000
        0.000000000000000
        0.000000000000000
        0.001718913109538
        0.004745064223129
        0.007206855656114
        0.005812291510683
        0.002396045977726
        0.000533646749428
        0.000000000000000
        0.000000000000000
        0.001552308854588
        0.006813099504924
        0.017643775836281
        0.027112701630092
        0.018891534672625
        0.006510436661805
        0.001367538840579
        0.000000000000000
        0.000000000000000
        0.003226996357557
        0.013654366785714
        0.037306374463479
        0.052736855946001
        0.029818094958420
        0.009020114960899
        0.001777558581946
        0.000000000000000
        0.000000000000000
        0.003326400987305
        0.013846322003739
        0.034901794178644
        0.040011767791807
        0.020848447649743
        0.006525987351428
        0.001196755971732
        0.000000000000000
        0.000000000000000
        0.001703263314647
        0.006775276743791
        0.014544467154860
        0.015467626090499
        0.008594022633223
        0.002566069399621
        0.000000000000000
        0.000000000000000
        0.000000000000000
        0.000000000000000
        0.001774992537393
        0.003657890285799
        0.003848413317191
        0.002062564665032
        0.000000000000000
        0.000000000000000
        0.000000000000000
        0.000000000000000
        0.000000000000000
        0.000000000000000
        0.000000000000000
        0.000000000000000
        0.000000000000000
        0.000000000000000
        0.000000000000000
        0.000000000000000
        0.000000000000000
        0.000000000000000
        0.000000000000000
        0.000000000000000
       -0.000141720886946
       -0.000095519415613
        0.000000000000000
        0.000000000000000
        0.000000000000000
        0.000000000000000
        0.000000000000000
       -0.000165604406123
       -0.000268499134833
       -0.000140765384311
        0.000121931658223
        0.000138948374271
        0.000020970671156
        0.000000000000000
        0.000000000000000
        0.000227154539598
        0.001019912020416
        0.002741103015813
        0.005649607406799
        0.005339390622702
        0.001787014801478
        0.000314844187989
        0.000000000000000
        0.000000000000000
        0.001841852176014
        0.008061015977063
        0.025074490941785
        0.047042959266483
        0.032103945167670
        0.007342464651558
        0.000963073505488
        0.000066084047371
        0.000575727987699
        0.004460680450884
        0.023505113424244
        0.086746089952352
        0.141139283868480
        0.059521697465417
        0.011527352391013
        0.001450960813469
        0.000104746124207
        0.000624561023303
        0.005001469152521
        0.026187455242774
        0.090780024715913
        0.099224828151286
        0.037432307403891
        0.008148463701033
        0.001208311714390
        0.000000000000000
        0.000000000000000
        0.002805087706270
        0.011507198743577
        0.028190529271630
        0.029382858408458
        0.013468376662283
        0.003657096958785
        0.000540515776984
        0.000000000000000
        0.000000000000000
        0.000829487457148
        0.002980983519988
        0.005842610999786
        0.006052406648664
        0.003318663025237
        0.000933274722705
        0.000000000000000
        0.000000000000000
        0.000000000000000
        0.000000000000000
        0.000000000000000
        0.000786164486287
        0.000822194998852
        0.000000000000000
        0.000000000000000
        0.000000000000000
        0.000000000000000
        0.000000000000000
        0.000000000000000
        0.000000000000000
       -0.000544405927312
       -0.000678209202526
       -0.000383712823254
        0.000000000000000
        0.000000000000000
        0.000000000000000
        0.000000000000000
       -0.000402522111836
       -0.001509465598642
       -0.003364988004667
       -0.004065361422856
       -0.002606364110962
       -0.001015804975348
       -0.000221333861740
        0.000000000000000
        0.000000000000000
       -0.000918434902888
       -0.004407046919855
       -0.012712256698366
       -0.017803838370450
       -0.009948806098275
       -0.003247804718699
       -0.000771091058807
        0.000000000000000
       -0.000050509494450
       -0.000553484102692
       -0.005050423514307
       -0.024474294830178
       -0.047648289846637
       -0.024905365736917
       -0.006776454442389
       -0.001442272066056
       -0.000179216963192
        0.000281037081419
        0.001684608974545
        0.007377574286898
        0.019744551184575
        0.000000000000001
       -0.019744551184579
       -0.007377574286900
       -0.001684608974546
       -0.000281037081419
        0.000435104371515
        0.003027899614092
        0.014440739845182
        0.044936293333838
        0.047648289846633
        0.004443367233249
       -0.002613861888489
       -0.001032143445344
       -0.000205377913873
        0.000000000000000
        0.001964859323650
        0.007579072830422
        0.017613091501068
        0.017803838370448
        0.005047971295570
        0.000075778808131
       -0.000275333361955
        0.000000000000000
        0.000000000000000
        0.000661036241970
        0.002209573240191
        0.004191991658998
        0.004065361422856
        0.001779360456631
        0.000315697333799
       -0.000037180268394
        0.000000000000000
        0.000000000000000
        0.000000000000000
        0.000000000000000
        0.000639600231577
        0.000678209202526
        0.000288518518989
        0.000000000000000
        0.000000000000000
        0.000000000000000
        0.000000000000000
        0.000000000000000
        0.000000000000000
       -0.000689547325037
       -0.000786397863620
        0.000000000000000
        0.000000000000000
        0.000000000000000
        0.000000000000000
        0.000000000000000
       -0.000592610649162
       -0.002324329095729
       -0.005008206753316
       -0.005830586731319
       -0.003745362916329
       -0.001317852635284
        0.000000000000000
        0.000000000000000
        0.000000000000000
       -0.001899507219510
       -0.008659408586172
       -0.023499891757944
       -0.028310670203439
       -0.015735987014323
       -0.005523156329160
       -0.001155232350831
        0.000000000000000
       -0.000299244196740
       -0.002976689060150
       -0.018662086643892
       -0.073589284004836
       -0.096422619833576
       -0.046176638857850
       -0.013533298142565
       -0.002871580322185
        0.000000000000000
       -0.000191133110634
       -0.001986264939485
       -0.014114797093370
       -0.066284091448690
       -0.141139283868480
       -0.079983695969083
       -0.020917668721890
       -0.003925376324869
       -0.000489341001272
        0.000000000000000
       -0.000178583568220
       -0.002676181535533
       -0.016330159487829
       -0.049845167584196
       -0.049294685878753
       -0.014867833250442
       -0.002987853597859
       -0.000391400873934
        0.000000000000000
        0.000387562034249
        0.000846147349958
       -0.000473492663775
       -0.006721795611820
       -0.010030028136390
       -0.004634804958884
       -0.001220424674749
        0.000000000000000
        0.000000000000000
        0.000000000000000
        0.000550182318702
        0.000695199025924
       -0.000081054533035
       -0.000956335904694
       -0.000795602798530
       -0.000257847479142
        0.000000000000000
        0.000000000000000
        0.000000000000000
        0.000000000000000
        0.000000000000000
        0.000105923751714
       -0.000001097745637
        0.000000000000000
        0.000000000000000
        0.000000000000000
        0.000000000000000
        0.000000000000000
        0.000000000000000
        0.000000000000000
        0.000000000000000
        0.000000000000000
        0.000000000000000
        0.000000000000000
        0.000000000000000
        0.000000000000000
        0.000000000000000
       -0.001462062047419
       -0.003221430263542
       -0.003681412196301
       -0.002169957202696
        0.000000000000000
        0.000000000000000
        0.000000000000000
        0.000000000000000
       -0.001288822319068
       -0.005492262929763
       -0.012684685295377
       -0.014861707294668
       -0.009248308531873
       -0.003165513113364
        0.000000000000000
        0.000000000000000
        0.000000000000000
       -0.002420820500545
       -0.010998531846334
       -0.030211156664957
       -0.038939579586787
       -0.023116058001783
       -0.008392046721803
       -0.001811472545579
        0.000000000000000
        0.000000000000000
       -0.002180571936796
       -0.010482340875147
       -0.032405539660776
       -0.052736855946001
       -0.034718929761124
       -0.012192140871466
       -0.002823983002707
        0.000000000000000
        0.000000000000000
       -0.000937592280742
       -0.004947040134550
       -0.015376165484242
       -0.028184889835113
       -0.023582172186313
       -0.009358226819211
       -0.002273119327339
        0.000000000000000
        0.000000000000000
        0.000000000000000
       -0.001119469395795
       -0.004090778324480
       -0.007812774451946
       -0.007672073370167
       -0.003679059791755
       -0.000948087745007
        0.000000000000000
        0.000000000000000
        0.000000000000000
        0.000000000000000
       -0.000579107623625
       -0.001323142743202
       -0.001472509564342
       -0.000774848016656
        0.000000000000000
        0.000000000000000
        0.000000000000000
        0.000000000000000
        0.000000000000000
        0.000000000000000
        0.000000000000000
        0.000000000000000
        0.000000000000000
        0.000000000000000
        0.000000000000000
        0.000000000000000
        0.000000000000000
        0.000000000000000
        0.000000000000000
        0.000000000000000
        0.000000000000000
        0.000000000000000
        0.000000000000000
        0.000000000000000
        0.000000000000000
        0.000000000000000
        0.000000000000000
       -0.001072962053617
       -0.001205135857608
        0.000000000000000
        0.000000000000000
        0.000000000000000
        0.000000000000000
        0.000000000000000
        0.000000000000000
       -0.001702389568263
       -0.003810766146734
       -0.004501321943359
       -0.002714813654576
        0.000000000000000
        0.000000000000000
        0.000000000000000
        0.000000000000000
       -0.000871747022729
       -0.003434978259956
       -0.007826437971955
       -0.009730857004391
       -0.006672956393133
       -0.002518949281912
        0.000000000000000
        0.000000000000000
        0.000000000000000
       -0.000868927931185
       -0.003591512379607
       -0.008698039114532
       -0.012042031345411
       -0.008989738642848
       -0.003888606666306
       -0.000978999573266
        0.000000000000000
        0.000000000000000
        0.000000000000000
       -0.001875207678343
       -0.005216528355871
       -0.007956920752988
       -0.006647226663764
       -0.003038351024249
       -0.000821511169455
        0.000000000000000
        0.000000000000000
        0.000000000000000
        0.000000000000000
       -0.001679343305679
       -0.002978797102555
       -0.002662563137471
       -0.001260144488597
        0.000000000000000
        0.000000000000000
        0.000000000000000
        0.000000000000000
        0.000000000000000
        0.000000000000000
       -0.000642791646842
       -0.000620296138567
        0.000000000000000
        0.000000000000000
        0.000000000000000
        0.000000000000000
        0.000000000000000
        0.000000000000000
        0.000000000000000
        0.000000000000000
        0.000000000000000
        0.000000000000000
        0.000000000000000
        0.000000000000000
        0.000000000000000
        0.000000000000000
        0.000000000000000
        0.000000000000000
        0.000000000000000
        0.000000000000000
        0.000000000000000
        0.000000000000000
        0.000000000000000
        0.000000000000000
        0.000000000000000
        0.000000000000000
        0.000000000000000
        0.000000000000000
        0.000000000000000
        0.000000000000000
        0.000000000000000
        0.000000000000000
        0.000000000000000
        0.000000000000000
        0.000000000000000
        0.000000000000000
        0.000000000000000
        0.000000000000000
        0.000000000000000
        0.000000000000000
        0.000000000000000
        0.000000000000000
        0.000000000000000
        0.000000000000000
       -0.001230996934164
       -0.001471557707686
        0.000000000000000
        0.000000000000000
        0.000000000000000
        0.000000000000000
        0.000000000000000
        0.000000000000000
        0.000000000000000
       -0.001370189387562
       -0.002008927528472
       -0.001378996705400
        0.000000000000000
        0.000000000000000
        0.000000000000000
        0.000000000000000
        0.000000000000000
        0.000000000000000
        0.000000000000000
       -0.001277628385276
       -0.001094453946045
        0.000000000000000
        0.000000000000000
        0.000000000000000
        0.000000000000000
        0.000000000000000
        0.000000000000000
        0.000000000000000
        0.000000000000000
        0.000000000000000
        0.000000000000000
        0.000000000000000
        0.000000000000000
        0.000000000000000
        0.000000000000000
        0.000000000000000
        0.000000000000000
        0.000000000000000
        0.000000000000000
        0.000000000000000
        0.000000000000000
        0.000000000000000
        0.000000000000000
        0.000000000000000
        0.000000000000000
        0.000000000000000
        0.000000000000000
        0.000000000000000
        0.000000000000000
        0.000000000000000
        0.000000000000000
END_DATAGRID_3D
END_BLOCK_DATAGRID_3D
