ATOMS
         C    7.558905    7.558905    7.558905
         H    8.755769    8.755769    8.755769
         H    6.362040    6.362040    8.755769
         H    8.755769    6.362040    6.362040
         H    6.362040    8.755769    6.362040
BEGIN_BLOCK_DATAGRID_3D
units: coords = b, function = sqrt(b^-3)
BEGIN_DATAGRID_3D_function
      9      9      9
0.0 0.0 0.0
   15.117809    0.000000    0.000000
    0.000000   15.117809    0.000000
    0.000000    0.000000   15.117809
        0.000000000000000
        0.000000000000000
        0.000000000000000
        0.000000000000000
        0.000000000000000
        0.000000000000000
        0.000000000000000
        0.000000000000000
        0.000000000000000
        0.000000000000000
        0.000000000000000
        0.000000000000000
        0.000000000000000
        0.000000000000000
        0.000000000000000
        0.000000000000000
        0.000000000000000
        0.000000000000000
        0.000000000000000
        0.000000000000000
        0.000000000000000
        0.000000000000000
        0.000000000000000
        0.000000000000000
        0.000000000000000
        0.000000000000000
        0.000000000000000
        0.000000000000000
        0.000000000000000
        0.000000000000000
        0.000000000000000
       -0.001424023795098
       -0.001314429298989
        0.000000000000000
        0.000000000000000
        0.000000000000000
        0.000000000000000
        0.000000000000000
        0.000000000000000
       -0.001080444342043
       -0.001848696573324
       -0.001399803313313
        0.000000000000000
        0.000000000000000
        0.000000000000000
        0.000000000000000
        0.000000000000000
        0.000000000000000
       -0.000800442485568
       -0.001056223860258
        0.000000000000000
        0.000000000000000
        0.000000000000000
        0.000000000000000
        0.000000000000000
        0.000000000000000
        0.000000000000000
        0.000000000000000
        0.000000000000000
        0.000000000000000
        0.000000000000000
        0.000000000000000
        0.000000000000000
        0.000000000000000
        0.000000000000000
        0.000000000000000
        0.000000000000000
        0.000000000000000
        0.000000000000000
        0.000000000000000
        0.000000000000000
        0.000000000000000
        0.000000000000000
        0.000000000000000
        0.000000000000000
        0.000000000000000
        0.000000000000000
        0.000000000000000
        0.000000000000000
        0.000000000000000
        0.000000000000000
        0.000000000000000
        0.000000000000000
        0.000000000000000
        0.000000000000000
        0.000000000000000
        0.000000000000000
        0.000000000000000
        0.000000000000000
        0.000000000000000
        0.000000000000000
        0.000000000000000
        0.000000000000000
        0.000000000000000
       -0.001263701287704
       -0.001246985610109
        0.000000000000000
        0.000000000000000
        0.000000000000000
        0.000000000000000
        0.000000000000000
        0.000000000000000
       -0.002408416343599
       -0.004526867022069
       -0.004355150774128
       -0.002150953536338
        0.000000000000000
        0.000000000000000
        0.000000000000000
        0.000000000000000
       -0.001698745600036
       -0.005370967787922
       -0.009345488440250
       -0.008555680215794
       -0.004266538526141
       -0.001198425285277
        0.000000000000000
        0.000000000000000
       -0.000445417488218
       -0.002295744345975
       -0.006625276475806
       -0.010727586626519
       -0.009094632553880
       -0.004310112543484
       -0.001185137989471
        0.000000000000000
        0.000000000000000
       -0.000329054570682
       -0.001543798541341
       -0.004229037114357
       -0.006374420589435
       -0.005023183536465
       -0.002209338272108
        0.000000000000000
        0.000000000000000
        0.000000000000000
        0.000000000000000
       -0.000544577151812
       -0.001455186293354
       -0.002078989867390
       -0.001499667528545
        0.000000000000000
        0.000000000000000
        0.000000000000000
        0.000000000000000
        0.000000000000000
        0.000000000000000
       -0.000280494245850
       -0.000366854189985
        0.000000000000000
        0.000000000000000
        0.000000000000000
        0.000000000000000
        0.000000000000000
        0.000000000000000
        0.000000000000000
        0.000000000000000
        0.000000000000000
        0.000000000000000
        0.000000000000000
        0.000000000000000
        0.000000000000000
        0.000000000000000
        0.000000000000000
        0.000000000000000
        0.000000000000000
        0.000000000000000
        0.000000000000000
        0.000000000000000
        0.000000000000000
        0.000000000000000
        0.000000000000000
        0.000000000000000
        0.000000000000000
       -0.002006175383131
       -0.003951227569671
       -0.003927481359267
       -0.001970716125233
        0.000000000000000
        0.000000000000000
        0.000000000000000
        0.000000000000000
       -0.002129015710578
       -0.007980981387968
       -0.015772330277996
       -0.015528008452118
       -0.007428803322528
       -0.001926753651673
        0.000000000000000
        0.000000000000000
       -0.000703302583379
       -0.004883569510557
       -0.018483241095305
       -0.039615773828333
       -0.037070499777563
       -0.015124447951702
       -0.003734554445263
        0.000000000000000
        0.000000000000000
       -0.000871184618554
       -0.005928328447774
       -0.023834489912307
       -0.049122453657214
       -0.037990702092676
       -0.014695018997450
       -0.003594066423841
        0.000000000000000
        0.000000000000000
       -0.000485426634200
       -0.003330383586744
       -0.012368444964018
       -0.022209418176649
       -0.016565764597628
       -0.006941955752829
       -0.001708985008090
        0.000000000000000
        0.000000000000000
       -0.000098535873430
       -0.000856913440830
       -0.002926823086327
       -0.004851017167228
       -0.003844543875418
       -0.001635209429185
        0.000000000000000
        0.000000000000000
        0.000000000000000
        0.000000000000000
       -0.000054573399870
       -0.000292499720196
       -0.000514023472724
       -0.000406112208338
        0.000000000000000
        0.000000000000000
        0.000000000000000
        0.000000000000000
        0.000000000000000
        0.000000000000000
        0.000000000000000
        0.000000000000000
        0.000000000000000
        0.000000000000000
        0.000000000000000
        0.000000000000000
        0.000000000000000
        0.000000000000000
        0.000000000000000
        0.000000000000000
       -0.000923187302169
       -0.000919973279869
        0.000000000000000
        0.000000000000000
        0.000000000000000
        0.000000000000000
        0.000000000000000
       -0.000815288098714
       -0.003288755385273
       -0.006554676703751
       -0.006584601557036
       -0.003475576492005
       -0.000999337597043
        0.000000000000000
        0.000000000000000
       -0.000222086042525
       -0.002783263357642
       -0.012988699843466
       -0.031671853221343
       -0.032150699117718
       -0.013469930042920
       -0.003371261825988
        0.000000000000000
        0.000000000000000
       -0.000218027140104
       -0.004885663383397
       -0.032493654060936
       -0.102645290160158
       -0.102655865608424
       -0.030950689613017
       -0.006103827377641
       -0.000823759834476
        0.000158997282184
        0.000281265440436
       -0.004175327692963
       -0.040958704487940
       -0.130311345994650
       -0.095010867985832
       -0.028109146021959
       -0.005623102056362
       -0.000776805661148
        0.000175734801682
        0.000648876074442
       -0.000193202531004
       -0.011841367606698
       -0.033324282313615
       -0.024957039652224
       -0.009731026418707
       -0.002433089850255
        0.000000000000000
        0.000000000000000
        0.000502241494220
        0.001167683590253
        0.001006806973697
       -0.000612620493580
       -0.001627989958639
       -0.001231943115356
       -0.000400722150400
        0.000000000000000
        0.000000000000000
        0.000212196624627
        0.000606556160237
        0.001129650253837
        0.001212840087825
        0.000637638394914
        0.000192479905790
        0.000000000000000
        0.000000000000000
        0.000000000000000
        0.000000000000000
        0.000000000000000
        0.000271948247075
        0.000305378923204
        0.000000000000000
        0.000000000000000
        0.000000000000000
        0.000000000000000
        0.000000000000000
        0.000000000000000
        0.000000000000000
       -0.000346632039689
       -0.000854414805312
       -0.000799667655001
        0.000000000000000
        0.000000000000000
        0.000000000000000
        0.000000000000000
        0.000109447853206
       -0.000207215788101
       -0.001989931899545
       -0.004957984436828
       -0.005275361500638
       -0.002845822774076
       -0.000863044068574
        0.000000000000000
        0.000000000000000
        0.000641704486922
        0.000746733969368
       -0.005189529527092
       -0.022702996415730
       -0.023384310091866
       -0.010278256690047
       -0.002705416106830
        0.000000000000000
        0.000391973091609
        0.002125798280198
        0.006525712085261
        0.000869996559054
       -0.060226185802732
       -0.063711253188078
       -0.021446674628140
       -0.004594642739619
       -0.000677506495765
        0.000611895310222
        0.003550696226458
        0.016258914228096
        0.043131416281841
       -0.000000000000001
       -0.043131416281838
       -0.016258914228095
       -0.003550696226458
       -0.000611895310222
        0.000428957682213
        0.003077293861140
        0.013937648742745
        0.044134221510116
        0.060226185802734
        0.018707035118912
        0.000983313800135
       -0.000608449401719
       -0.000143424278057
        0.000000000000000
        0.001544751045578
        0.006079334605057
        0.015875284206471
        0.022702996415731
        0.012698555412488
        0.003452188115624
        0.000518960574331
        0.000000000000000
        0.000000000000000
        0.000430245498451
        0.001685157712823
        0.003758012622159
        0.004957984436829
        0.003507280778024
        0.001367880849354
        0.000323350716916
        0.000000000000000
        0.000000000000000
        0.000000000000000
        0.000000000000000
        0.000551118841449
        0.000854414805312
        0.000595180853241
        0.000000000000000
        0.000000000000000
        0.000000000000000
        0.000000000000000
        0.000000000000000
        0.000000000000000
       -0.000057460113006
       -0.000223112392521
        0.000000000000000
        0.000000000000000
        0.000000000000000
        0.000000000000000
        0.000000000000000
        0.000293379992870
        0.000790204492111
        0.000675870007346
       -0.000710616696432
       -0.001515124769184
       -0.000990916753364
        0.000000000000000
        0.000000000000000
        0.000000000000000
        0.001420906984391
        0.004940633497720
        0.009301429553580
        0.003098013602385
       -0.003209950496239
       -0.002682156988464
       -0.000892804449815
        0.000000000000000
        0.000524261155125
        0.003582704537388
        0.016556871326748
        0.049738511491033
        0.039804033531132
        0.005941582730120
       -0.001869753569157
       -0.001007243485623
        0.000000000000000
        0.000661933491639
        0.004921826700902
        0.024638688520969
        0.085962922557110
        0.130311345994650
        0.050006649916665
        0.007645785193955
        0.000420009915024
       -0.000044125112675
        0.000000000000000
        0.003658360475982
        0.016486443371262
        0.051509110983041
        0.096165538942642
        0.064758721724092
        0.014587020817274
        0.001872246765811
        0.000123763877669
        0.000000000000000
        0.001515612642739
        0.006697363461462
        0.017826640298344
        0.029186460112539
        0.021842462590443
        0.007361612954947
        0.001448113347378
        0.000000000000000
        0.000000000000000
        0.000000000000000
        0.001613724946289
        0.004166241759543
        0.006052453312358
        0.004779081295853
        0.002078815839658
        0.000493760979546
        0.000000000000000
        0.000000000000000
        0.000000000000000
        0.000000000000000
        0.000000000000000
        0.000840920771485
        0.000705485145800
        0.000000000000000
        0.000000000000000
        0.000000000000000
        0.000000000000000
        0.000000000000000
        0.000000000000000
        0.000000000000000
        0.000000000000000
        0.000000000000000
        0.000000000000000
        0.000000000000000
        0.000000000000000
        0.000000000000000
        0.000000000000000
        0.000724918755692
        0.001242109359372
        0.000898189007494
        0.000199970531052
        0.000000000000000
        0.000000000000000
        0.000000000000000
        0.000000000000000
        0.000990722622969
        0.003599381459912
        0.006998711906918
        0.006240807557316
        0.002515561041862
        0.000389298259728
        0.000000000000000
        0.000000000000000
        0.000000000000000
        0.002408575112811
        0.009438700674717
        0.022676681491294
        0.024694811285454
        0.011727824142750
        0.003027855649010
        0.000415458407876
        0.000000000000000
        0.000000000000000
        0.003057640151054
        0.012754397022199
        0.034520244591685
        0.049122453657214
        0.027304947413298
        0.007868950423026
        0.001407610891341
        0.000000000000000
        0.000000000000000
        0.001996829183593
        0.008797669614377
        0.023321181550183
        0.037130380719529
        0.026762263250287
        0.009016130863729
        0.001811405966652
        0.000000000000000
        0.000000000000000
        0.000000000000000
        0.003374926880035
        0.009309964221524
        0.014382539887909
        0.011456119631527
        0.004686335303446
        0.001034566902133
        0.000000000000000
        0.000000000000000
        0.000000000000000
        0.000000000000000
        0.002212317060417
        0.003567062034901
        0.002977871720091
        0.001300370769411
        0.000000000000000
        0.000000000000000
        0.000000000000000
        0.000000000000000
        0.000000000000000
        0.000000000000000
        0.000000000000000
        0.000000000000000
        0.000000000000000
        0.000000000000000
        0.000000000000000
        0.000000000000000
        0.000000000000000
        0.000000000000000
        0.000000000000000
        0.000000000000000
        0.000000000000000
        0.000000000000000
        0.000000000000000
        0.000000000000000
        0.000000000000000
        0.000000000000000
        0.000000000000000
        0.000541028005936
        0.000510105072337
        0.000000000000000
        0.000000000000000
        0.000000000000000
        0.000000000000000
        0.000000000000000
        0.000000000000000
        0.001214922507634
        0.002404795932530
        0.002463155402160
        0.001293525851259
        0.000000000000000
        0.000000000000000
        0.000000000000000
        0.000000000000000
        0.000834631188179
        0.002940559193689
        0.006034557375541
        0.006876643980829
        0.004145697162195
        0.001410901424533
        0.000000000000000
        0.000000000000000
        0.000000000000000
        0.000985110839875
        0.003773686270697
        0.008393357198420
        0.010727586626519
        0.007326551831265
        0.002832170618762
        0.000645444637814
        0.000000000000000
        0.000000000000000
        0.000000000000000
        0.002497182447611
        0.006248454162191
        0.008843265048856
        0.006750159954611
        0.002869777873793
        0.000692848667780
        0.000000000000000
        0.000000000000000
        0.000000000000000
        0.000000000000000
        0.002614558020885
        0.004142701487299
        0.003405541134951
        0.001480608180516
        0.000000000000000
        0.000000000000000
        0.000000000000000
        0.000000000000000
        0.000000000000000
        0.000000000000000
        0.001120450405353
        0.000986451850023
        0.000000000000000
        0.000000000000000
        0.000000000000000
        0.000000000000000
        0.000000000000000
        0.000000000000000
        0.000000000000000
        0.000000000000000
        0.000000000000000
        0.000000000000000
        0.000000000000000
        0.000000000000000
        0.000000000000000
        0.000000000000000
        0.000000000000000
        0.000000000000000
        0.000000000000000
        0.000000000000000
        0.000000000000000
        0.000000000000000
        0.000000000000000
        0.000000000000000
        0.000000000000000
        0.000000000000000
        0.000000000000000
        0.000000000000000
        0.000000000000000
        0.000000000000000
        0.000000000000000
        0.000000000000000
        0.000000000000000
        0.000000000000000
        0.000000000000000
        0.000000000000000
        0.000000000000000
        0.000000000000000
        0.000000000000000
        0.000000000000000
        0.000000000000000
        0.000000000000000
        0.000000000000000
        0.000000000000000
        0.001014930619637
        0.001138490390942
        0.000000000000000
        0.000000000000000
        0.000000000000000
        0.000000000000000
        0.000000000000000
        0.000000000000000
        0.000000000000000
        0.001284931143804
        0.001848696573324
        0.001195316511552
        0.000000000000000
        0.000000000000000
        0.000000000000000
        0.000000000000000
        0.000000000000000
        0.000000000000000
        0.000000000000000
        0.001341757264414
        0.001099941164919
        0.000000000000000
        0.000000000000000
        0.000000000000000
        0.000000000000000
        0.000000000000000
        0.000000000000000
        0.000000000000000
        0.000000000000000
        0.000000000000000
        0.000000000000000
        0.000000000000000
        0.000000000000000
        0.000000000000000
        0.000000000000000
        0.000000000000000
        0.000000000000000
        0.000000000000000
        0.000000000000000
        0.000000000000000
        0.000000000000000
        0.000000000000000
        0.000000000000000
        0.000000000000000
        0.000000000000000
        0.000000000000000
        0.000000000000000
        0.000000000000000
        0.000000000000000
        0.000000000000000
        0.000000000000000
END_DATAGRID_3D
END_BLOCK_DATAGRID_3D
