ATOMS
         C    7.558905    7.558905    7.558905
         H    8.755769    8.755769    8.755769
         H    6.362040    6.362040    8.755769
         H    8.755769    6.362040    6.362040
         H    6.362040    8.755769    6.362040
BEGIN_BLOCK_DATAGRID_3D
units: coords = b, function = sqrt(b^-3)
BEGIN_DATAGRID_3D_function
      9      9      9
0.0 0.0 0.0
   15.117809    0.000000    0.000000
    0.000000   15.117809    0.000000
    0.000000    0.000000   15.117809
        0.000000000000000
        0.000000000000000
        0.000000000000000
        0.000000000000000
        0.000000000000000
        0.000000000000000
        0.000000000000000
        0.000000000000000
        0.000000000000000
        0.000000000000000
        0.000000000000000
        0.000000000000000
        0.000000000000000
        0.000000000000000
        0.000000000000000
        0.000000000000000
        0.000000000000000
        0.000000000000000
        0.000000000000000
        0.000000000000000
        0.000000000000000
        0.000000000000000
        0.000000000000000
        0.000000000000000
        0.000000000000000
        0.000000000000000
        0.000000000000000
        0.000000000000000
        0.000000000000000
        0.000000000000000
        0.000000000000000
       -0.000090447315203
        0.000086094525539
        0.000000000000000
        0.000000000000000
        0.000000000000000
        0.000000000000000
        0.000000000000000
        0.000000000000000
       -0.000205086172259
        0.000000604911254
        0.000205897733085
        0.000000000000000
        0.000000000000000
        0.000000000000000
        0.000000000000000
        0.000000000000000
        0.000000000000000
       -0.000085402519202
        0.000091258876029
        0.000000000000000
        0.000000000000000
        0.000000000000000
        0.000000000000000
        0.000000000000000
        0.000000000000000
        0.000000000000000
        0.000000000000000
        0.000000000000000
        0.000000000000000
        0.000000000000000
        0.000000000000000
        0.000000000000000
        0.000000000000000
        0.000000000000000
        0.000000000000000
        0.000000000000000
        0.000000000000000
        0.000000000000000
        0.000000000000000
        0.000000000000000
        0.000000000000000
        0.000000000000000
        0.000000000000000
        0.000000000000000
        0.000000000000000
        0.000000000000000
        0.000000000000000
        0.000000000000000
        0.000000000000000
        0.000000000000000
        0.000000000000000
        0.000000000000000
        0.000000000000000
        0.000000000000000
        0.000000000000000
        0.000000000000000
        0.000000000000000
        0.000000000000000
        0.000000000000000
        0.000000000000000
        0.000000000000000
        0.000000000000000
        0.000000000000000
       -0.000343841849720
       -0.000143686738157
        0.000000000000000
        0.000000000000000
        0.000000000000000
        0.000000000000000
        0.000000000000000
        0.000000000000000
       -0.001098856841994
       -0.000952729484982
       -0.000072130010402
        0.000268433093663
        0.000000000000000
        0.000000000000000
        0.000000000000000
        0.000000000000000
       -0.001335645864751
       -0.002125923139100
       -0.001078264128361
        0.000723906370729
        0.001012068113387
        0.000450463780186
        0.000000000000000
        0.000000000000000
       -0.000616870747947
       -0.001697166765111
       -0.001985891135107
        0.000003510169256
        0.001991034840146
        0.001699328264857
        0.000617404281342
        0.000000000000000
        0.000000000000000
       -0.000449963974124
       -0.001010166915358
       -0.000719723088572
        0.001083407833400
        0.002129324205127
        0.001336924627285
        0.000000000000000
        0.000000000000000
        0.000000000000000
        0.000000000000000
       -0.000267551090163
        0.000074031208430
        0.000954890984728
        0.001100135604528
        0.000000000000000
        0.000000000000000
        0.000000000000000
        0.000000000000000
        0.000000000000000
        0.000000000000000
        0.000144186544220
        0.000344375383115
        0.000000000000000
        0.000000000000000
        0.000000000000000
        0.000000000000000
        0.000000000000000
        0.000000000000000
        0.000000000000000
        0.000000000000000
        0.000000000000000
        0.000000000000000
        0.000000000000000
        0.000000000000000
        0.000000000000000
        0.000000000000000
        0.000000000000000
        0.000000000000000
        0.000000000000000
        0.000000000000000
        0.000000000000000
        0.000000000000000
        0.000000000000000
        0.000000000000000
        0.000000000000000
        0.000000000000000
        0.000000000000000
       -0.001600354657932
       -0.001670413551293
       -0.000605330998304
        0.000043720354527
        0.000000000000000
        0.000000000000000
        0.000000000000000
        0.000000000000000
       -0.003020320063481
       -0.005837722646045
       -0.004944966662499
       -0.000430891974776
        0.001097745279830
        0.000581614747611
        0.000000000000000
        0.000000000000000
       -0.002035071714862
       -0.006871206325883
       -0.011724723332643
       -0.007298716759614
        0.004129137168957
        0.004506794940135
        0.001755189166157
        0.000000000000000
        0.000000000000000
       -0.002698101908271
       -0.008229520231247
       -0.012564306232248
        0.000016073338079
        0.012584536028175
        0.008236268388376
        0.002699562981248
        0.000000000000000
        0.000000000000000
       -0.001753808347864
       -0.004500756342214
       -0.004112960271958
        0.007318946555541
        0.011736191703539
        0.006875075751194
        0.002035861038504
        0.000000000000000
        0.000000000000000
       -0.000580952053449
       -0.001095034113818
        0.000436930572697
        0.004951714819628
        0.005841592071356
        0.003021551754058
        0.000000000000000
        0.000000000000000
        0.000000000000000
        0.000000000000000
       -0.000043057660365
        0.000606711816596
        0.001671874624270
        0.001601143981574
        0.000000000000000
        0.000000000000000
        0.000000000000000
        0.000000000000000
        0.000000000000000
        0.000000000000000
        0.000000000000000
        0.000000000000000
        0.000000000000000
        0.000000000000000
        0.000000000000000
        0.000000000000000
        0.000000000000000
        0.000000000000000
        0.000000000000000
        0.000000000000000
       -0.000714870066813
       -0.000405697339322
        0.000000000000000
        0.000000000000000
        0.000000000000000
        0.000000000000000
        0.000000000000000
       -0.002437105066896
       -0.004721941632673
       -0.004557735709077
       -0.001733555050553
        0.000025928531413
        0.000202249275345
        0.000000000000000
        0.000000000000000
       -0.002635033101069
       -0.009489783377963
       -0.018575095890856
       -0.017202876767974
       -0.002004671985865
        0.002444008701958
        0.001302250572084
        0.000000000000000
        0.000000000000000
       -0.005746522041157
       -0.021278758261265
       -0.046096999100769
       -0.036391321727637
        0.015169333071019
        0.012677813596882
        0.004148864988513
        0.000771503773930
       -0.001075952205956
       -0.006838618885725
       -0.026377378419847
       -0.056973692455314
        0.000042639122515
        0.057018183003814
        0.026387942209359
        0.006840366785912
        0.001076154358784
       -0.000771291733923
       -0.004147080076116
       -0.012667623016602
       -0.015131868477914
        0.036435812276137
        0.046115797518889
        0.021283540982389
        0.005747389512069
        0.000000000000000
        0.000000000000000
       -0.001301311801109
       -0.002439983288900
        0.002014862566145
        0.017213440557486
        0.018579878611980
        0.009491097192040
        0.002635236889884
        0.000000000000000
        0.000000000000000
       -0.000201991715268
       -0.000024989760437
        0.001735339962950
        0.004559483609264
        0.004722809103585
        0.002437308855712
        0.000000000000000
        0.000000000000000
        0.000000000000000
        0.000000000000000
        0.000000000000000
        0.000405909379329
        0.000715072219642
        0.000000000000000
        0.000000000000000
        0.000000000000000
        0.000000000000000
        0.000000000000000
        0.000000000000000
        0.000000000000000
       -0.001119973772247
       -0.001239025519485
       -0.000542327215363
        0.000000000000000
        0.000000000000000
        0.000000000000000
        0.000000000000000
       -0.001308654490061
       -0.004301059986427
       -0.007765051910804
       -0.007189797279083
       -0.002770678361433
       -0.000126289196886
        0.000215830563764
        0.000000000000000
        0.000000000000000
       -0.004584311063276
       -0.016551718993781
       -0.035810091297396
       -0.032922641032181
       -0.005626124762361
        0.002729627174852
        0.001591629585816
        0.000000000000000
       -0.001366417054333
       -0.009138308080706
       -0.039719003476635
       -0.109124030884771
       -0.087336713604334
        0.017995084902330
        0.018081441427182
        0.005558125165049
        0.000952352161947
       -0.001728275136249
       -0.010028807055791
       -0.045922687645087
       -0.121823052253913
       -0.000000000000000
        0.121823052253914
        0.045922687645087
        0.010028807055791
        0.001728275136249
       -0.000952270834391
       -0.005557628673940
       -0.018078984401877
       -0.017988679109758
        0.087336713604335
        0.109117625092200
        0.039716546451329
        0.009137811589596
        0.001366335726777
        0.000000000000000
       -0.001591249805073
       -0.002728253247265
        0.005628581787667
        0.032922641032182
        0.035807634272091
        0.016550345066194
        0.004583931282533
        0.000000000000000
        0.000000000000000
       -0.000215688947920
        0.000126668977629
        0.002771174852543
        0.007189797279083
        0.007764555419694
        0.004300680205685
        0.001308512874217
        0.000000000000000
        0.000000000000000
        0.000000000000000
        0.000000000000000
        0.000542408542919
        0.001239025519485
        0.001119892444691
        0.000000000000000
        0.000000000000000
        0.000000000000000
        0.000000000000000
        0.000000000000000
        0.000000000000000
       -0.001011722993097
       -0.000947430920796
        0.000000000000000
        0.000000000000000
        0.000000000000000
        0.000000000000000
        0.000000000000000
       -0.001225990298800
       -0.003920107818212
       -0.006834963580370
       -0.005977994563160
       -0.002244382062697
       -0.000182154210014
        0.000000000000000
        0.000000000000000
        0.000000000000000
       -0.004130548262816
       -0.014812727054046
       -0.031130086348786
       -0.024233339291783
       -0.004915298970433
        0.001564130356225
        0.001018280017143
        0.000000000000000
       -0.001205820342956
       -0.007804859146632
       -0.033550939938608
       -0.091907179568349
       -0.054737624254803
        0.007592640597691
        0.011482422866631
        0.003969701737819
        0.000000000000000
       -0.001242735682768
       -0.007857317868920
       -0.031420609458665
       -0.070139017539215
       -0.000042639122514
        0.070094526990717
        0.031410045669153
        0.007855569968734
        0.001242533529940
        0.000000000000000
       -0.003970569208731
       -0.011487205587755
       -0.007611439015811
        0.054693133706305
        0.091869714975245
        0.033540749358328
        0.007803074234235
        0.001205608302949
        0.000000000000000
       -0.001018483805958
       -0.001565444170302
        0.004910516249309
        0.024222775502272
        0.031119895768507
        0.014808701640989
        0.004129609491840
        0.000000000000000
        0.000000000000000
        0.000000000000000
        0.000181950421199
        0.002243514591785
        0.005976246662974
        0.006833178667973
        0.003919169047236
        0.001225732738722
        0.000000000000000
        0.000000000000000
        0.000000000000000
        0.000000000000000
        0.000000000000000
        0.000947228767968
        0.001011510953089
        0.000000000000000
        0.000000000000000
        0.000000000000000
        0.000000000000000
        0.000000000000000
        0.000000000000000
        0.000000000000000
        0.000000000000000
        0.000000000000000
        0.000000000000000
        0.000000000000000
        0.000000000000000
        0.000000000000000
        0.000000000000000
       -0.001850307416656
       -0.003288848288495
       -0.002756935632020
       -0.001018904618978
        0.000000000000000
        0.000000000000000
        0.000000000000000
        0.000000000000000
       -0.001938995640806
       -0.006650962971233
       -0.011937826377313
       -0.008877125156429
       -0.002087930375693
        0.000497477171602
        0.000000000000000
        0.000000000000000
        0.000000000000000
       -0.003678051716060
       -0.012751954000732
       -0.025002263510682
       -0.014338845289838
        0.001928387938009
        0.004180151797071
        0.001617655868523
        0.000000000000000
        0.000000000000000
       -0.003477458960078
       -0.011050452009799
       -0.017617203277481
       -0.000016073338079
        0.017596973481555
        0.011043703852671
        0.003475997887101
        0.000000000000000
        0.000000000000000
       -0.001618445192165
       -0.004184021222382
       -0.001939856308904
        0.014318615493912
        0.024986086613685
        0.012745915402812
        0.003676670897768
        0.000000000000000
        0.000000000000000
        0.000000000000000
       -0.000498708862179
        0.002084060950382
        0.008870376999301
        0.011931787779392
        0.006648251805222
        0.001938332946644
        0.000000000000000
        0.000000000000000
        0.000000000000000
        0.000000000000000
        0.001018115295337
        0.002755474559043
        0.003287467470203
        0.001849644722494
        0.000000000000000
        0.000000000000000
        0.000000000000000
        0.000000000000000
        0.000000000000000
        0.000000000000000
        0.000000000000000
        0.000000000000000
        0.000000000000000
        0.000000000000000
        0.000000000000000
        0.000000000000000
        0.000000000000000
        0.000000000000000
        0.000000000000000
        0.000000000000000
        0.000000000000000
        0.000000000000000
        0.000000000000000
        0.000000000000000
        0.000000000000000
        0.000000000000000
        0.000000000000000
       -0.000880054285297
       -0.000748982076577
        0.000000000000000
        0.000000000000000
        0.000000000000000
        0.000000000000000
        0.000000000000000
        0.000000000000000
       -0.001625813986858
       -0.002756167680330
       -0.002039951992478
       -0.000517896241933
        0.000000000000000
        0.000000000000000
        0.000000000000000
        0.000000000000000
       -0.000978018039944
       -0.002934930663291
       -0.004379900528848
       -0.002501918787296
        0.000349102835762
        0.000918230018413
        0.000000000000000
        0.000000000000000
        0.000000000000000
       -0.000907472690034
       -0.002477224243687
       -0.003007985923154
       -0.000003510169256
        0.003002842218115
        0.002475062743941
        0.000906939156639
        0.000000000000000
        0.000000000000000
        0.000000000000000
       -0.000919508780947
       -0.000352503901789
        0.002496775082257
        0.004375717246691
        0.002933029465262
        0.000977518233881
        0.000000000000000
        0.000000000000000
        0.000000000000000
        0.000000000000000
        0.000516617479398
        0.002037790492732
        0.002754266482301
        0.001624931983358
        0.000000000000000
        0.000000000000000
        0.000000000000000
        0.000000000000000
        0.000000000000000
        0.000000000000000
        0.000748448543182
        0.000879554479235
        0.000000000000000
        0.000000000000000
        0.000000000000000
        0.000000000000000
        0.000000000000000
        0.000000000000000
        0.000000000000000
        0.000000000000000
        0.000000000000000
        0.000000000000000
        0.000000000000000
        0.000000000000000
        0.000000000000000
        0.000000000000000
        0.000000000000000
        0.000000000000000
        0.000000000000000
        0.000000000000000
        0.000000000000000
        0.000000000000000
        0.000000000000000
        0.000000000000000
        0.000000000000000
        0.000000000000000
        0.000000000000000
        0.000000000000000
        0.000000000000000
        0.000000000000000
        0.000000000000000
        0.000000000000000
        0.000000000000000
        0.000000000000000
        0.000000000000000
        0.000000000000000
        0.000000000000000
        0.000000000000000
        0.000000000000000
        0.000000000000000
        0.000000000000000
        0.000000000000000
        0.000000000000000
        0.000000000000000
       -0.000520411094565
       -0.000323617577183
        0.000000000000000
        0.000000000000000
        0.000000000000000
        0.000000000000000
        0.000000000000000
        0.000000000000000
        0.000000000000000
       -0.000372479057069
       -0.000000604911254
        0.000371667496243
        0.000000000000000
        0.000000000000000
        0.000000000000000
        0.000000000000000
        0.000000000000000
        0.000000000000000
        0.000000000000000
        0.000322806016357
        0.000519719088228
        0.000000000000000
        0.000000000000000
        0.000000000000000
        0.000000000000000
        0.000000000000000
        0.000000000000000
        0.000000000000000
        0.000000000000000
        0.000000000000000
        0.000000000000000
        0.000000000000000
        0.000000000000000
        0.000000000000000
        0.000000000000000
        0.000000000000000
        0.000000000000000
        0.000000000000000
        0.000000000000000
        0.000000000000000
        0.000000000000000
        0.000000000000000
        0.000000000000000
        0.000000000000000
        0.000000000000000
        0.000000000000000
        0.000000000000000
        0.000000000000000
        0.000000000000000
        0.000000000000000
        0.000000000000000
END_DATAGRID_3D
END_BLOCK_DATAGRID_3D
