ATOMS
         C    7.558905    7.558905    7.558905
         H    8.755769    8.755769    8.755769
         H    6.362040    6.362040    8.755769
         H    8.755769    6.362040    6.362040
         H    6.362040    8.755769    6.362040
BEGIN_BLOCK_DATAGRID_3D
units: coords = b, function = sqrt(b^-3)
BEGIN_DATAGRID_3D_function
      9      9      9
0.0 0.0 0.0
   15.117809    0.000000    0.000000
    0.000000   15.117809    0.000000
    0.000000    0.000000   15.117809
        0.000000000000000
        0.000000000000000
        0.000000000000000
        0.000000000000000
        0.000000000000000
        0.000000000000000
        0.000000000000000
        0.000000000000000
        0.000000000000000
        0.000000000000000
        0.000000000000000
        0.000000000000000
        0.000000000000000
        0.000000000000000
        0.000000000000000
        0.000000000000000
        0.000000000000000
        0.000000000000000
        0.000000000000000
        0.000000000000000
        0.000000000000000
        0.000000000000000
        0.000000000000000
        0.000000000000000
        0.000000000000000
        0.000000000000000
        0.000000000000000
        0.000000000000000
        0.000000000000000
        0.000000000000000
        0.000000000000000
       -0.000381520672521
       -0.000148987053240
        0.000000000000000
        0.000000000000000
        0.000000000000000
        0.000000000000000
        0.000000000000000
        0.000000000000000
       -0.000985982857400
       -0.001050923481653
       -0.000423956739470
        0.000000000000000
        0.000000000000000
        0.000000000000000
        0.000000000000000
        0.000000000000000
        0.000000000000000
       -0.001053248322293
       -0.001028418924349
        0.000000000000000
        0.000000000000000
        0.000000000000000
        0.000000000000000
        0.000000000000000
        0.000000000000000
        0.000000000000000
        0.000000000000000
        0.000000000000000
        0.000000000000000
        0.000000000000000
        0.000000000000000
        0.000000000000000
        0.000000000000000
        0.000000000000000
        0.000000000000000
        0.000000000000000
        0.000000000000000
        0.000000000000000
        0.000000000000000
        0.000000000000000
        0.000000000000000
        0.000000000000000
        0.000000000000000
        0.000000000000000
        0.000000000000000
        0.000000000000000
        0.000000000000000
        0.000000000000000
        0.000000000000000
        0.000000000000000
        0.000000000000000
        0.000000000000000
        0.000000000000000
        0.000000000000000
        0.000000000000000
        0.000000000000000
        0.000000000000000
        0.000000000000000
        0.000000000000000
        0.000000000000000
        0.000000000000000
        0.000000000000000
        0.000000000000000
        0.000325172377532
        0.000415841335230
        0.000000000000000
        0.000000000000000
        0.000000000000000
        0.000000000000000
        0.000000000000000
        0.000000000000000
       -0.000312144337886
        0.000274894532870
        0.000899152049341
        0.000646895179734
        0.000000000000000
        0.000000000000000
        0.000000000000000
        0.000000000000000
       -0.001560673970217
       -0.002649695574274
       -0.001855522094315
        0.000172102932463
        0.000743896868150
        0.000330760071615
        0.000000000000000
        0.000000000000000
       -0.001114441106021
       -0.003650338118665
       -0.006641213592295
       -0.006098281811062
       -0.002295040072653
       -0.000104875268835
        0.000187523696010
        0.000000000000000
        0.000000000000000
       -0.001199082365032
       -0.004046883279573
       -0.007439796204806
       -0.007080731570633
       -0.003259039183108
       -0.000660943773208
        0.000000000000000
        0.000000000000000
        0.000000000000000
        0.000000000000000
       -0.002179216133085
       -0.004202138460764
       -0.004030107920370
       -0.001909473405539
        0.000000000000000
        0.000000000000000
        0.000000000000000
        0.000000000000000
        0.000000000000000
        0.000000000000000
       -0.001284163628646
       -0.001252089787542
        0.000000000000000
        0.000000000000000
        0.000000000000000
        0.000000000000000
        0.000000000000000
        0.000000000000000
        0.000000000000000
        0.000000000000000
        0.000000000000000
        0.000000000000000
        0.000000000000000
        0.000000000000000
        0.000000000000000
        0.000000000000000
        0.000000000000000
        0.000000000000000
        0.000000000000000
        0.000000000000000
        0.000000000000000
        0.000000000000000
        0.000000000000000
        0.000000000000000
        0.000000000000000
        0.000000000000000
        0.000000000000000
        0.000720773911806
        0.001753084359517
        0.001997368260166
        0.001109728479930
        0.000000000000000
        0.000000000000000
        0.000000000000000
        0.000000000000000
       -0.000637326904808
        0.000273663924531
        0.003741232473979
        0.005837741419984
        0.003425910854931
        0.001032702990190
        0.000000000000000
        0.000000000000000
       -0.001571381023993
       -0.005175638512641
       -0.008282326188923
       -0.002267104277687
        0.007677054272911
        0.005130673717303
        0.001659346105546
        0.000000000000000
        0.000000000000000
       -0.003665660781392
       -0.013577401691582
       -0.030031248120634
       -0.027924506795591
       -0.005114349579540
        0.001853703809943
        0.001127311741511
        0.000000000000000
        0.000000000000000
       -0.004058267200837
       -0.015621641296059
       -0.035781475889081
       -0.032878493422487
       -0.011641886157650
       -0.001546785470559
        0.000200074498652
        0.000000000000000
        0.000000000000000
       -0.002184013783853
       -0.008136069587622
       -0.016328708998741
       -0.015464930355618
       -0.006996087907730
       -0.001502511858723
        0.000000000000000
        0.000000000000000
        0.000000000000000
        0.000000000000000
       -0.002261039273593
       -0.004396289355457
       -0.004291433399397
       -0.002092080437147
        0.000000000000000
        0.000000000000000
        0.000000000000000
        0.000000000000000
        0.000000000000000
        0.000000000000000
        0.000000000000000
        0.000000000000000
        0.000000000000000
        0.000000000000000
        0.000000000000000
        0.000000000000000
        0.000000000000000
        0.000000000000000
        0.000000000000000
        0.000000000000000
        0.000904581948793
        0.000863940174198
        0.000000000000000
        0.000000000000000
        0.000000000000000
        0.000000000000000
        0.000000000000000
        0.000707964646000
        0.002697236741935
        0.005311028946951
        0.005233653888982
        0.002775015526280
        0.000841999171249
        0.000000000000000
        0.000000000000000
       -0.000335660657467
        0.000217756910739
        0.005827156659622
        0.018132162270183
        0.020310655486681
        0.009379325422075
        0.002592248552851
        0.000000000000000
        0.000000000000000
       -0.002705120959449
       -0.008428582673064
       -0.009727067708171
        0.022303770644885
        0.047341385825048
        0.018208150502150
        0.004391302137058
        0.000695367135631
       -0.000999314377036
       -0.006715500833717
       -0.030242703426004
       -0.086221951780297
       -0.074077734230522
        0.008927701028230
        0.011890037007191
        0.003678841591830
        0.000648110538621
       -0.001063748152553
       -0.007492263375655
       -0.035912433636818
       -0.112429314642759
       -0.099598021396952
       -0.022931770919874
        0.000119473023205
        0.001198047739333
        0.000000000000000
        0.000000000000000
       -0.004223192689115
       -0.016372749795087
       -0.038014938621348
       -0.036484828688996
       -0.014136266309481
       -0.002500270345906
       -0.000018385411506
        0.000000000000000
        0.000000000000000
       -0.001289463045646
       -0.004405959662545
       -0.008334615127579
       -0.008347688188838
       -0.004204309962051
       -0.001062010714974
        0.000000000000000
        0.000000000000000
        0.000000000000000
        0.000000000000000
        0.000000000000000
       -0.001232321191121
       -0.001255785787207
        0.000000000000000
        0.000000000000000
        0.000000000000000
        0.000000000000000
        0.000000000000000
        0.000000000000000
        0.000000000000000
        0.000898380480605
        0.001502301784915
        0.001117137118896
        0.000000000000000
        0.000000000000000
        0.000000000000000
        0.000000000000000
        0.000310402690621
        0.001712813510447
        0.005261930236856
        0.008717532541250
        0.007512501075868
        0.003655287853036
        0.001014631628089
        0.000000000000000
        0.000000000000000
        0.000219301021073
        0.003563552279071
        0.017847316569172
        0.039918259639516
        0.032393538334774
        0.013195548227170
        0.003409285036736
        0.000000000000000
       -0.000401053660344
       -0.001978908045832
       -0.002763405284068
        0.021190353078082
        0.105894591090430
        0.089302268788030
        0.028998658373634
        0.006319831699085
        0.000903101775673
       -0.001077389777740
       -0.006251860006671
       -0.028627753300067
       -0.075943296549615
       -0.000000000000001
        0.075943296549617
        0.028627753300068
        0.006251860006671
        0.001077389777741
       -0.001044393639502
       -0.007182394863458
       -0.033267293768523
       -0.100431170408938
       -0.105894591090428
       -0.010061451457170
        0.007032040678958
        0.002841471210206
        0.000542345524172
        0.000000000000000
       -0.004069085127678
       -0.015582497973506
       -0.036662173729662
       -0.039918259639515
       -0.013578681174282
       -0.001176602532735
        0.000440499069869
        0.000000000000000
        0.000000000000000
       -0.001260663446793
       -0.004315087943979
       -0.008375064240241
       -0.008717532541249
       -0.004399367072482
       -0.001053013419504
       -0.000064370871916
        0.000000000000000
        0.000000000000000
        0.000000000000000
        0.000000000000000
       -0.001258428982725
       -0.001502301784915
       -0.000757088616777
        0.000000000000000
        0.000000000000000
        0.000000000000000
        0.000000000000000
        0.000000000000000
        0.000000000000000
        0.000854662923060
        0.001110935650709
        0.000000000000000
        0.000000000000000
        0.000000000000000
        0.000000000000000
        0.000000000000000
        0.000399273056514
        0.001946624505615
        0.005155559755842
        0.007463402365773
        0.005749337083441
        0.002467852013930
        0.000000000000000
        0.000000000000000
        0.000000000000000
        0.000837024373525
        0.005617579294777
        0.019864793530376
        0.032108692633762
        0.022654631304810
        0.009391990825634
        0.002295952036098
        0.000000000000000
       -0.000168764134639
        0.000041541628474
        0.007100234568871
        0.045702221389316
        0.088188851221226
        0.056413084740536
        0.020306507637120
        0.004859491689673
        0.000000000000000
       -0.000446132922810
       -0.002445802075573
       -0.005787995626588
        0.006981134449440
        0.074077734230523
        0.070313116302629
        0.024140662045401
        0.005482461317460
        0.000797336761224
        0.000000000000000
       -0.003352418469557
       -0.011997397987260
       -0.023754246112490
       -0.010894600469157
        0.019385707428398
        0.010604048565797
        0.003059419610123
        0.000537145151561
        0.000000000000000
       -0.001941905967124
       -0.007109477390468
       -0.014345521654950
       -0.013756026214948
       -0.002160510395708
        0.001375845078236
        0.000793919762739
        0.000000000000000
        0.000000000000000
        0.000000000000000
       -0.002113805944957
       -0.004242263863325
       -0.004426743123886
       -0.002054598517245
       -0.000315680369351
        0.000048190817882
        0.000000000000000
        0.000000000000000
        0.000000000000000
        0.000000000000000
        0.000000000000000
       -0.000759731812294
       -0.000486281906137
        0.000000000000000
        0.000000000000000
        0.000000000000000
        0.000000000000000
        0.000000000000000
        0.000000000000000
        0.000000000000000
        0.000000000000000
        0.000000000000000
        0.000000000000000
        0.000000000000000
        0.000000000000000
        0.000000000000000
        0.000000000000000
        0.001080734045144
        0.002724271771729
        0.003615017003966
        0.002455042748125
        0.000000000000000
        0.000000000000000
        0.000000000000000
        0.000000000000000
        0.000613103094180
        0.003307290938434
        0.009159163296867
        0.013017868032263
        0.009336083811843
        0.003696239994110
        0.000000000000000
        0.000000000000000
        0.000000000000000
        0.000672098885247
        0.004866470795749
        0.017631330798110
        0.028502357367252
        0.020160251152979
        0.008438505950287
        0.002077492125940
        0.000000000000000
        0.000000000000000
       -0.000184123325214
        0.001558455997147
        0.011216390960143
        0.027924506795591
        0.023929206740031
        0.010165241884493
        0.002722472365094
        0.000000000000000
        0.000000000000000
       -0.000706185600599
       -0.001716081967088
       -0.000236038806406
        0.006643240332922
        0.010473090818061
        0.005624496783008
        0.001726822210044
        0.000000000000000
        0.000000000000000
        0.000000000000000
       -0.001556401230579
       -0.002613659828643
       -0.001294170150623
        0.001331804281890
        0.001402867794257
        0.000538207699483
        0.000000000000000
        0.000000000000000
        0.000000000000000
        0.000000000000000
       -0.001083736222784
       -0.001076667964086
       -0.000325350676438
        0.000070576748519
        0.000000000000000
        0.000000000000000
        0.000000000000000
        0.000000000000000
        0.000000000000000
        0.000000000000000
        0.000000000000000
        0.000000000000000
        0.000000000000000
        0.000000000000000
        0.000000000000000
        0.000000000000000
        0.000000000000000
        0.000000000000000
        0.000000000000000
        0.000000000000000
        0.000000000000000
        0.000000000000000
        0.000000000000000
        0.000000000000000
        0.000000000000000
        0.000000000000000
        0.000000000000000
        0.000825430892534
        0.000999861941178
        0.000000000000000
        0.000000000000000
        0.000000000000000
        0.000000000000000
        0.000000000000000
        0.000000000000000
        0.000998910904636
        0.002530120877036
        0.003353691524939
        0.002272435716517
        0.000000000000000
        0.000000000000000
        0.000000000000000
        0.000000000000000
        0.000308892375900
        0.001587548122644
        0.004260740833069
        0.006196445747568
        0.004804066304498
        0.002066785072164
        0.000000000000000
        0.000000000000000
        0.000000000000000
        0.000164180349849
        0.001048063685132
        0.003528079588910
        0.006098281811062
        0.005408174076038
        0.002707149702367
        0.000762737060162
        0.000000000000000
        0.000000000000000
        0.000000000000000
        0.000154832671261
        0.001104668452884
        0.002739807917380
        0.003006952439274
        0.001715438288780
        0.000559429917516
        0.000000000000000
        0.000000000000000
        0.000000000000000
        0.000000000000000
       -0.000050817973092
        0.000401521862561
        0.000772865534388
        0.000533410048715
        0.000000000000000
        0.000000000000000
        0.000000000000000
        0.000000000000000
        0.000000000000000
        0.000000000000000
       -0.000072944531167
        0.000042891400882
        0.000000000000000
        0.000000000000000
        0.000000000000000
        0.000000000000000
        0.000000000000000
        0.000000000000000
        0.000000000000000
        0.000000000000000
        0.000000000000000
        0.000000000000000
        0.000000000000000
        0.000000000000000
        0.000000000000000
        0.000000000000000
        0.000000000000000
        0.000000000000000
        0.000000000000000
        0.000000000000000
        0.000000000000000
        0.000000000000000
        0.000000000000000
        0.000000000000000
        0.000000000000000
        0.000000000000000
        0.000000000000000
        0.000000000000000
        0.000000000000000
        0.000000000000000
        0.000000000000000
        0.000000000000000
        0.000000000000000
        0.000000000000000
        0.000000000000000
        0.000000000000000
        0.000000000000000
        0.000000000000000
        0.000000000000000
        0.000000000000000
        0.000000000000000
        0.000000000000000
        0.000000000000000
        0.000000000000000
        0.000675590054232
        0.000883568787851
        0.000000000000000
        0.000000000000000
        0.000000000000000
        0.000000000000000
        0.000000000000000
        0.000000000000000
        0.000000000000000
        0.000625934355281
        0.001050923481653
        0.000784005241589
        0.000000000000000
        0.000000000000000
        0.000000000000000
        0.000000000000000
        0.000000000000000
        0.000000000000000
        0.000000000000000
        0.000526370809020
        0.000526645321301
        0.000000000000000
        0.000000000000000
        0.000000000000000
        0.000000000000000
        0.000000000000000
        0.000000000000000
        0.000000000000000
        0.000000000000000
        0.000000000000000
        0.000000000000000
        0.000000000000000
        0.000000000000000
        0.000000000000000
        0.000000000000000
        0.000000000000000
        0.000000000000000
        0.000000000000000
        0.000000000000000
        0.000000000000000
        0.000000000000000
        0.000000000000000
        0.000000000000000
        0.000000000000000
        0.000000000000000
        0.000000000000000
        0.000000000000000
        0.000000000000000
        0.000000000000000
        0.000000000000000
        0.000000000000000
END_DATAGRID_3D
END_BLOCK_DATAGRID_3D
