ATOMS
         C    7.558905    7.558905    7.558905
         H    8.755769    8.755769    8.755769
         H    6.362040    6.362040    8.755769
         H    8.755769    6.362040    6.362040
         H    6.362040    8.755769    6.362040
BEGIN_BLOCK_DATAGRID_3D
units: coords = b, function = 1/hbar/H*b^-2
BEGIN_DATAGRID_3D_function
      9      9      9
0.0 0.0 0.0
   15.117809    0.000000    0.000000
    0.000000   15.117809    0.000000
    0.000000    0.000000   15.117809
        0.000000000000000
        0.000000000000000
        0.000000000000000
        0.000000000000000
        0.000000000000000
        0.000000000000000
        0.000000000000000
        0.000000000000000
        0.000000000000000
        0.000000000000000
        0.000000000000000
        0.000000000000000
        0.000000000000000
        0.000000000000000
        0.000000000000000
        0.000000000000000
        0.000000000000000
        0.000000000000000
        0.000000000000000
        0.000000000000000
        0.000000000000000
        0.000000000000000
        0.000000000000000
        0.000000000000000
        0.000000000000000
        0.000000000000000
        0.000000000000000
        0.000000000000000
        0.000000000000000
        0.000000000000000
        0.000000000000000
       -0.000000001077305
       -0.000000000032175
        0.000000000000000
        0.000000000000000
        0.000000000000000
        0.000000000000000
        0.000000000000000
        0.000000000000000
       -0.000000000031896
       -0.000000003195972
       -0.000000000032175
        0.000000000000000
        0.000000000000000
        0.000000000000000
        0.000000000000000
        0.000000000000000
        0.000000000000000
       -0.000000000031896
       -0.000000001076268
        0.000000000000000
        0.000000000000000
        0.000000000000000
        0.000000000000000
        0.000000000000000
        0.000000000000000
        0.000000000000000
        0.000000000000000
        0.000000000000000
        0.000000000000000
        0.000000000000000
        0.000000000000000
        0.000000000000000
        0.000000000000000
        0.000000000000000
        0.000000000000000
        0.000000000000000
        0.000000000000000
        0.000000000000000
        0.000000000000000
        0.000000000000000
        0.000000000000000
        0.000000000000000
        0.000000000000000
        0.000000000000000
        0.000000000000000
        0.000000000000000
        0.000000000000000
        0.000000000000000
        0.000000000000000
        0.000000000000000
        0.000000000000000
        0.000000000000000
        0.000000000000000
        0.000000000000000
        0.000000000000000
        0.000000000000000
        0.000000000000000
        0.000000000000000
        0.000000000000000
        0.000000000000000
        0.000000000000000
        0.000000000000000
        0.000000000000000
       -0.000000001681886
        0.000000001533012
        0.000000000000000
        0.000000000000000
        0.000000000000000
        0.000000000000000
        0.000000000000000
        0.000000000000000
       -0.000000003529222
       -0.000000003125905
        0.000000002129255
        0.000000002179235
        0.000000000000000
        0.000000000000000
        0.000000000000000
        0.000000000000000
       -0.000000002427839
       -0.000000006295841
        0.000000001104193
       -0.000000000655087
        0.000000003010908
       -0.000000000016306
        0.000000000000000
        0.000000000000000
       -0.000000000016420
       -0.000000004346351
        0.000000001548317
       -0.000000000776368
        0.000000001560613
       -0.000000004348358
       -0.000000000016306
        0.000000000000000
        0.000000000000000
       -0.000000000016420
        0.000000002998443
       -0.000000000671858
        0.000000001080894
       -0.000000006301589
       -0.000000002434796
        0.000000000000000
        0.000000000000000
        0.000000000000000
        0.000000000000000
        0.000000002176514
        0.000000002125652
       -0.000000003126691
       -0.000000003534423
        0.000000000000000
        0.000000000000000
        0.000000000000000
        0.000000000000000
        0.000000000000000
        0.000000000000000
        0.000000001533879
       -0.000000001681280
        0.000000000000000
        0.000000000000000
        0.000000000000000
        0.000000000000000
        0.000000000000000
        0.000000000000000
        0.000000000000000
        0.000000000000000
        0.000000000000000
        0.000000000000000
        0.000000000000000
        0.000000000000000
        0.000000000000000
        0.000000000000000
        0.000000000000000
        0.000000000000000
        0.000000000000000
        0.000000000000000
        0.000000000000000
        0.000000000000000
        0.000000000000000
        0.000000000000000
        0.000000000000000
        0.000000000000000
        0.000000000000000
       -0.000000005074229
       -0.000000001737328
        0.000000000758115
        0.000000003710181
        0.000000000000000
        0.000000000000000
        0.000000000000000
        0.000000000000000
       -0.000000007314775
        0.000000003594195
        0.000000027830467
       -0.000000025162559
       -0.000000014335257
        0.000000001621332
        0.000000000000000
        0.000000000000000
       -0.000000001561435
       -0.000000000643063
        0.000000080219885
       -0.000000046907638
       -0.000000165272757
       -0.000000013606406
        0.000000001405133
        0.000000000000000
        0.000000000000000
       -0.000000003533503
        0.000000030765041
       -0.000000060637709
       -0.000000169808648
       -0.000000061684569
        0.000000031076687
       -0.000000003546629
        0.000000000000000
        0.000000000000000
        0.000000001380543
       -0.000000013487276
       -0.000000164389619
       -0.000000047878786
        0.000000080617933
       -0.000000000519940
       -0.000000001576246
        0.000000000000000
        0.000000000000000
        0.000000001611673
       -0.000000014190859
       -0.000000025448559
        0.000000027737151
        0.000000003739213
       -0.000000007347263
        0.000000000000000
        0.000000000000000
        0.000000000000000
        0.000000000000000
        0.000000003699808
        0.000000000753746
       -0.000000001735078
       -0.000000005089325
        0.000000000000000
        0.000000000000000
        0.000000000000000
        0.000000000000000
        0.000000000000000
        0.000000000000000
        0.000000000000000
        0.000000000000000
        0.000000000000000
        0.000000000000000
        0.000000000000000
        0.000000000000000
        0.000000000000000
        0.000000000000000
        0.000000000000000
        0.000000000000000
       -0.000000002910167
        0.000000001873846
        0.000000000000000
        0.000000000000000
        0.000000000000000
        0.000000000000000
        0.000000000000000
       -0.000000004146422
       -0.000000011278801
       -0.000000024995808
        0.000000020758995
        0.000000009899745
       -0.000000000115711
        0.000000000000000
        0.000000000000000
       -0.000000000974991
       -0.000000006800819
        0.000000308661536
        0.000000493444584
       -0.000000465257306
       -0.000000283717818
        0.000000012417395
        0.000000000000000
        0.000000000000000
       -0.000000017144639
        0.000000288207507
        0.000000830416790
       -0.000001479856793
       -0.000002681762134
       -0.000000261436662
        0.000000012698759
       -0.000000000120934
       -0.000000000120549
       -0.000000021023536
        0.000000426351819
       -0.000001358751872
       -0.000003542335934
       -0.000001372201903
        0.000000429032012
       -0.000000021029440
       -0.000000000120934
       -0.000000000120549
        0.000000012589886
       -0.000000258992181
       -0.000002667507559
       -0.000001492526172
        0.000000833535780
        0.000000290636057
       -0.000000017224468
        0.000000000000000
        0.000000000000000
        0.000000012355419
       -0.000000281630931
       -0.000000466613655
        0.000000492757731
        0.000000310600230
       -0.000000006655886
       -0.000000000997990
        0.000000000000000
        0.000000000000000
       -0.000000000119194
        0.000000009841539
        0.000000020759432
       -0.000000024977369
       -0.000000011310097
       -0.000000004169995
        0.000000000000000
        0.000000000000000
        0.000000000000000
        0.000000000000000
        0.000000000000000
        0.000000001878321
       -0.000000002902921
        0.000000000000000
        0.000000000000000
        0.000000000000000
        0.000000000000000
        0.000000000000000
        0.000000000000000
        0.000000000000000
       -0.000000002215961
       -0.000000000003243
        0.000000002214834
        0.000000000000000
        0.000000000000000
        0.000000000000000
        0.000000000000000
        0.000000000219118
       -0.000000007804332
       -0.000000043837320
       -0.000000000063583
        0.000000043919960
        0.000000007860860
       -0.000000000215968
        0.000000000000000
        0.000000000000000
       -0.000000010608959
        0.000000178331858
        0.000001181241232
        0.000000001399141
       -0.000001185086703
       -0.000000180159569
        0.000000010699285
        0.000000000000000
       -0.000000000744408
       -0.000000032336348
        0.000000963347345
        0.000002667239149
        0.000000027583193
       -0.000002689924068
       -0.000000970142583
        0.000000032371189
        0.000000000760575
        0.000000000000000
       -0.000000000000000
        0.000000000000000
       -0.000000000000000
       -0.000000000000000
       -0.000000000000000
       -0.000000000000000
        0.000000000000000
        0.000000000000000
        0.000000000744408
        0.000000032336348
       -0.000000963347345
       -0.000002667239149
       -0.000000027583193
        0.000002689924068
        0.000000970142583
       -0.000000032371189
       -0.000000000760575
        0.000000000000000
        0.000000010608959
       -0.000000178331858
       -0.000001181241232
       -0.000000001399141
        0.000001185086703
        0.000000180159569
       -0.000000010699285
        0.000000000000000
        0.000000000000000
       -0.000000000219118
        0.000000007804332
        0.000000043837320
        0.000000000063583
       -0.000000043919960
       -0.000000007860860
        0.000000000215968
        0.000000000000000
        0.000000000000000
        0.000000000000000
        0.000000000000000
        0.000000002215961
        0.000000000003243
       -0.000000002214834
        0.000000000000000
        0.000000000000000
        0.000000000000000
        0.000000000000000
        0.000000000000000
        0.000000000000000
       -0.000000001878321
        0.000000002902921
        0.000000000000000
        0.000000000000000
        0.000000000000000
        0.000000000000000
        0.000000000000000
        0.000000000119194
       -0.000000009841539
       -0.000000020759432
        0.000000024977369
        0.000000011310097
        0.000000004169995
        0.000000000000000
        0.000000000000000
        0.000000000000000
       -0.000000012355419
        0.000000281630931
        0.000000466613655
       -0.000000492757731
       -0.000000310600230
        0.000000006655886
        0.000000000997990
        0.000000000000000
        0.000000000120549
       -0.000000012589886
        0.000000258992181
        0.000002667507559
        0.000001492526172
       -0.000000833535780
       -0.000000290636057
        0.000000017224468
        0.000000000000000
        0.000000000120549
        0.000000021023536
       -0.000000426351819
        0.000001358751872
        0.000003542335934
        0.000001372201903
       -0.000000429032012
        0.000000021029440
        0.000000000120934
        0.000000000000000
        0.000000017144639
       -0.000000288207507
       -0.000000830416790
        0.000001479856793
        0.000002681762134
        0.000000261436662
       -0.000000012698759
        0.000000000120934
        0.000000000000000
        0.000000000974991
        0.000000006800819
       -0.000000308661536
       -0.000000493444584
        0.000000465257306
        0.000000283717818
       -0.000000012417395
        0.000000000000000
        0.000000000000000
        0.000000000000000
        0.000000004146422
        0.000000011278801
        0.000000024995808
       -0.000000020758995
       -0.000000009899745
        0.000000000115711
        0.000000000000000
        0.000000000000000
        0.000000000000000
        0.000000000000000
        0.000000000000000
        0.000000002910167
       -0.000000001873846
        0.000000000000000
        0.000000000000000
        0.000000000000000
        0.000000000000000
        0.000000000000000
        0.000000000000000
        0.000000000000000
        0.000000000000000
        0.000000000000000
        0.000000000000000
        0.000000000000000
        0.000000000000000
        0.000000000000000
        0.000000000000000
       -0.000000003699808
       -0.000000000753746
        0.000000001735078
        0.000000005089325
        0.000000000000000
        0.000000000000000
        0.000000000000000
        0.000000000000000
       -0.000000001611673
        0.000000014190859
        0.000000025448559
       -0.000000027737151
       -0.000000003739213
        0.000000007347263
        0.000000000000000
        0.000000000000000
        0.000000000000000
       -0.000000001380543
        0.000000013487276
        0.000000164389619
        0.000000047878786
       -0.000000080617933
        0.000000000519940
        0.000000001576246
        0.000000000000000
        0.000000000000000
        0.000000003533503
       -0.000000030765041
        0.000000060637709
        0.000000169808648
        0.000000061684569
       -0.000000031076687
        0.000000003546629
        0.000000000000000
        0.000000000000000
        0.000000001561435
        0.000000000643063
       -0.000000080219885
        0.000000046907638
        0.000000165272757
        0.000000013606406
       -0.000000001405133
        0.000000000000000
        0.000000000000000
        0.000000000000000
        0.000000007314775
       -0.000000003594195
       -0.000000027830467
        0.000000025162559
        0.000000014335257
       -0.000000001621332
        0.000000000000000
        0.000000000000000
        0.000000000000000
        0.000000000000000
        0.000000005074229
        0.000000001737328
       -0.000000000758115
       -0.000000003710181
        0.000000000000000
        0.000000000000000
        0.000000000000000
        0.000000000000000
        0.000000000000000
        0.000000000000000
        0.000000000000000
        0.000000000000000
        0.000000000000000
        0.000000000000000
        0.000000000000000
        0.000000000000000
        0.000000000000000
        0.000000000000000
        0.000000000000000
        0.000000000000000
        0.000000000000000
        0.000000000000000
        0.000000000000000
        0.000000000000000
        0.000000000000000
        0.000000000000000
        0.000000000000000
       -0.000000001533879
        0.000000001681280
        0.000000000000000
        0.000000000000000
        0.000000000000000
        0.000000000000000
        0.000000000000000
        0.000000000000000
       -0.000000002176514
       -0.000000002125652
        0.000000003126691
        0.000000003534423
        0.000000000000000
        0.000000000000000
        0.000000000000000
        0.000000000000000
        0.000000000016420
       -0.000000002998443
        0.000000000671858
       -0.000000001080894
        0.000000006301589
        0.000000002434796
        0.000000000000000
        0.000000000000000
        0.000000000000000
        0.000000000016420
        0.000000004346351
       -0.000000001548317
        0.000000000776368
       -0.000000001560613
        0.000000004348358
        0.000000000016306
        0.000000000000000
        0.000000000000000
        0.000000000000000
        0.000000002427839
        0.000000006295841
       -0.000000001104193
        0.000000000655087
       -0.000000003010908
        0.000000000016306
        0.000000000000000
        0.000000000000000
        0.000000000000000
        0.000000000000000
        0.000000003529222
        0.000000003125905
       -0.000000002129255
       -0.000000002179235
        0.000000000000000
        0.000000000000000
        0.000000000000000
        0.000000000000000
        0.000000000000000
        0.000000000000000
        0.000000001681886
       -0.000000001533012
        0.000000000000000
        0.000000000000000
        0.000000000000000
        0.000000000000000
        0.000000000000000
        0.000000000000000
        0.000000000000000
        0.000000000000000
        0.000000000000000
        0.000000000000000
        0.000000000000000
        0.000000000000000
        0.000000000000000
        0.000000000000000
        0.000000000000000
        0.000000000000000
        0.000000000000000
        0.000000000000000
        0.000000000000000
        0.000000000000000
        0.000000000000000
        0.000000000000000
        0.000000000000000
        0.000000000000000
        0.000000000000000
        0.000000000000000
        0.000000000000000
        0.000000000000000
        0.000000000000000
        0.000000000000000
        0.000000000000000
        0.000000000000000
        0.000000000000000
        0.000000000000000
        0.000000000000000
        0.000000000000000
        0.000000000000000
        0.000000000000000
        0.000000000000000
        0.000000000000000
        0.000000000000000
        0.000000000000000
        0.000000000031896
        0.000000001076268
        0.000000000000000
        0.000000000000000
        0.000000000000000
        0.000000000000000
        0.000000000000000
        0.000000000000000
        0.000000000000000
        0.000000000031896
        0.000000003195972
        0.000000000032175
        0.000000000000000
        0.000000000000000
        0.000000000000000
        0.000000000000000
        0.000000000000000
        0.000000000000000
        0.000000000000000
        0.000000001077305
        0.000000000032175
        0.000000000000000
        0.000000000000000
        0.000000000000000
        0.000000000000000
        0.000000000000000
        0.000000000000000
        0.000000000000000
        0.000000000000000
        0.000000000000000
        0.000000000000000
        0.000000000000000
        0.000000000000000
        0.000000000000000
        0.000000000000000
        0.000000000000000
        0.000000000000000
        0.000000000000000
        0.000000000000000
        0.000000000000000
        0.000000000000000
        0.000000000000000
        0.000000000000000
        0.000000000000000
        0.000000000000000
        0.000000000000000
        0.000000000000000
        0.000000000000000
        0.000000000000000
        0.000000000000000
        0.000000000000000
END_DATAGRID_3D
END_BLOCK_DATAGRID_3D
