ATOMS
         C    7.558905    7.558905    7.558905
         H    8.755769    8.755769    8.755769
         H    6.362040    6.362040    8.755769
         H    8.755769    6.362040    6.362040
         H    6.362040    8.755769    6.362040
BEGIN_BLOCK_DATAGRID_3D
units: coords = b, function = sqrt(b^-3)
BEGIN_DATAGRID_3D_function
      9      9      9
0.0 0.0 0.0
   15.117809    0.000000    0.000000
    0.000000   15.117809    0.000000
    0.000000    0.000000   15.117809
        0.000000000000000
        0.000000000000000
        0.000000000000000
        0.000000000000000
        0.000000000000000
        0.000000000000000
        0.000000000000000
        0.000000000000000
        0.000000000000000
        0.000000000000000
        0.000000000000000
        0.000000000000000
        0.000000000000000
        0.000000000000000
        0.000000000000000
        0.000000000000000
        0.000000000000000
        0.000000000000000
        0.000000000000000
        0.000000000000000
        0.000000000000000
        0.000000000000000
        0.000000000000000
        0.000000000000000
        0.000000000000000
        0.000000000000000
        0.000000000000000
        0.000000000000000
        0.000000000000000
        0.000000000000000
        0.000000000000000
        0.000391796217227
        0.000275424926046
        0.000000000000000
        0.000000000000000
        0.000000000000000
        0.000000000000000
        0.000000000000000
        0.000000000000000
        0.000619676465216
        0.000783026808556
        0.000429051187623
        0.000000000000000
        0.000000000000000
        0.000000000000000
        0.000000000000000
        0.000000000000000
        0.000000000000000
        0.000617161157526
        0.000658664645042
        0.000000000000000
        0.000000000000000
        0.000000000000000
        0.000000000000000
        0.000000000000000
        0.000000000000000
        0.000000000000000
        0.000000000000000
        0.000000000000000
        0.000000000000000
        0.000000000000000
        0.000000000000000
        0.000000000000000
        0.000000000000000
        0.000000000000000
        0.000000000000000
        0.000000000000000
        0.000000000000000
        0.000000000000000
        0.000000000000000
        0.000000000000000
        0.000000000000000
        0.000000000000000
        0.000000000000000
        0.000000000000000
        0.000000000000000
        0.000000000000000
        0.000000000000000
        0.000000000000000
        0.000000000000000
        0.000000000000000
        0.000000000000000
        0.000000000000000
        0.000000000000000
        0.000000000000000
        0.000000000000000
        0.000000000000000
        0.000000000000000
        0.000000000000000
        0.000000000000000
        0.000000000000000
        0.000000000000000
        0.000000000000000
        0.000000000000000
        0.000012369575391
       -0.000022860778713
        0.000000000000000
        0.000000000000000
        0.000000000000000
        0.000000000000000
        0.000000000000000
        0.000000000000000
        0.000444062460633
        0.000489302840665
        0.000214094208685
        0.000024382988011
        0.000000000000000
        0.000000000000000
        0.000000000000000
        0.000000000000000
        0.000913466421065
        0.001941262130017
        0.002229555582594
        0.001246773608704
        0.000341186517186
        0.000045859641951
        0.000000000000000
        0.000000000000000
        0.000552817809200
        0.001969013759895
        0.004041566007883
        0.004544466583620
        0.002602772465886
        0.000805014159360
        0.000124609151762
        0.000000000000000
        0.000000000000000
        0.000584731388000
        0.002084347198396
        0.004140038794958
        0.004430121899431
        0.002466839128979
        0.000738036027609
        0.000000000000000
        0.000000000000000
        0.000000000000000
        0.000000000000000
        0.001096176224985
        0.002227210564853
        0.002309360933416
        0.001218953409458
        0.000000000000000
        0.000000000000000
        0.000000000000000
        0.000000000000000
        0.000000000000000
        0.000000000000000
        0.000663553814720
        0.000678081070953
        0.000000000000000
        0.000000000000000
        0.000000000000000
        0.000000000000000
        0.000000000000000
        0.000000000000000
        0.000000000000000
        0.000000000000000
        0.000000000000000
        0.000000000000000
        0.000000000000000
        0.000000000000000
        0.000000000000000
        0.000000000000000
        0.000000000000000
        0.000000000000000
        0.000000000000000
        0.000000000000000
        0.000000000000000
        0.000000000000000
        0.000000000000000
        0.000000000000000
        0.000000000000000
        0.000000000000000
        0.000000000000000
       -0.000136922462938
       -0.000350065421411
       -0.000415785008397
       -0.000243577616050
        0.000000000000000
        0.000000000000000
        0.000000000000000
        0.000000000000000
        0.000446829295407
        0.000723955294763
        0.000270935835874
       -0.000528868091225
       -0.000492499118183
       -0.000183367055920
        0.000000000000000
        0.000000000000000
        0.000726902382278
        0.002783839532706
        0.006036653897581
        0.006597817432697
        0.002081737416292
        0.000035279417636
       -0.000149114709957
        0.000000000000000
        0.000000000000000
        0.001695497043506
        0.006834952025671
        0.017174186694019
        0.020812009619762
        0.008936206885558
        0.001797306315072
        0.000148314475511
        0.000000000000000
        0.000000000000000
        0.001874558446216
        0.007627814220459
        0.018698575408493
        0.019598031031589
        0.008840647493327
        0.002212841789341
        0.000280853575158
        0.000000000000000
        0.000000000000000
        0.001005448877750
        0.003913115601715
        0.008260102068766
        0.008468066577420
        0.004322450052423
        0.001161519785052
        0.000000000000000
        0.000000000000000
        0.000000000000000
        0.000000000000000
        0.001075587063304
        0.002177878315817
        0.002242283477299
        0.001171639571529
        0.000000000000000
        0.000000000000000
        0.000000000000000
        0.000000000000000
        0.000000000000000
        0.000000000000000
        0.000000000000000
        0.000000000000000
        0.000000000000000
        0.000000000000000
        0.000000000000000
        0.000000000000000
        0.000000000000000
        0.000000000000000
        0.000000000000000
        0.000000000000000
       -0.000339083663076
       -0.000305196056284
        0.000000000000000
        0.000000000000000
        0.000000000000000
        0.000000000000000
        0.000000000000000
       -0.000349758262893
       -0.001065103130556
       -0.001840474925758
       -0.001656401051604
       -0.000835110435238
       -0.000253040758328
        0.000000000000000
        0.000000000000000
        0.000045805395746
       -0.000217839252000
       -0.001896568693050
       -0.004988126134975
       -0.005165394086805
       -0.002425743675678
       -0.000694558759878
        0.000000000000000
        0.000000000000000
        0.000985088147710
        0.003530413057640
        0.006891549298078
        0.002518715438808
       -0.006730105006907
       -0.003521439776640
       -0.001004503499854
       -0.000175743055158
        0.000383073195671
        0.002728669460149
        0.013466985714788
        0.044112995410776
        0.055218774045467
        0.013209107259730
       -0.000055971184560
       -0.000568444032164
       -0.000141693397037
        0.000427064925880
        0.003184303748791
        0.016326935235319
        0.054651964845775
        0.055097605090580
        0.017559784473517
        0.002646575646176
        0.000110936586942
        0.000000000000000
        0.000000000000000
        0.001833483997679
        0.007438896617110
        0.018131137226500
        0.018672528701814
        0.008194095562365
        0.001963241990211
        0.000223139196292
        0.000000000000000
        0.000000000000000
        0.000562222818995
        0.001994017520861
        0.003912677312695
        0.004104962075219
        0.002221824513045
        0.000633097400156
        0.000000000000000
        0.000000000000000
        0.000000000000000
        0.000000000000000
        0.000000000000000
        0.000571634246045
        0.000600353341156
        0.000000000000000
        0.000000000000000
        0.000000000000000
        0.000000000000000
        0.000000000000000
        0.000000000000000
        0.000000000000000
       -0.000440482149077
       -0.000667030865933
       -0.000454390267433
        0.000000000000000
        0.000000000000000
        0.000000000000000
        0.000000000000000
       -0.000232506061748
       -0.001016457088232
       -0.002651326162450
       -0.003870354388955
       -0.003023323454380
       -0.001372840244478
       -0.000358902986747
        0.000000000000000
        0.000000000000000
       -0.000445253698205
       -0.002704267387326
       -0.009749244927161
       -0.017722096127601
       -0.012580309358091
       -0.004773552070802
       -0.001185971145708
        0.000000000000000
        0.000055930823760
        0.000121380523159
       -0.001829729387699
       -0.016321013098538
       -0.047007854809058
       -0.032873259227848
       -0.009968220267786
       -0.002113549060969
       -0.000291682099329
        0.000318862532957
        0.001864587807380
        0.008646099815037
        0.023173438768783
        0.000078060742831
       -0.023560702705935
       -0.008970849465627
       -0.001982465536771
       -0.000344038920083
        0.000371918425648
        0.002612469605604
        0.012706382496712
        0.040500988629427
        0.047054180874681
        0.008290201373547
       -0.001327469060060
       -0.000789935316547
       -0.000169840354936
        0.000000000000000
        0.001595031866619
        0.006330718410492
        0.015489545601958
        0.017734191434095
        0.006742475302914
        0.001003999465585
       -0.000033173286795
        0.000000000000000
        0.000000000000000
        0.000516395409255
        0.001801803393122
        0.003601073139484
        0.003872292369140
        0.002057348862660
        0.000556870323557
        0.000058062636985
        0.000000000000000
        0.000000000000000
        0.000000000000000
        0.000000000000000
        0.000550414804938
        0.000667188926746
        0.000342758457206
        0.000000000000000
        0.000000000000000
        0.000000000000000
        0.000000000000000
        0.000000000000000
        0.000000000000000
       -0.000456368047487
       -0.000555622355983
        0.000000000000000
        0.000000000000000
        0.000000000000000
        0.000000000000000
        0.000000000000000
       -0.000296286570674
       -0.001251899872802
       -0.002943079553004
       -0.003831473355365
       -0.002701007983311
       -0.001073663446262
        0.000000000000000
        0.000000000000000
        0.000000000000000
       -0.000822260402439
       -0.004193887929836
       -0.012595162678708
       -0.017317822749372
       -0.010836153364232
       -0.004124440358590
       -0.000944220134743
        0.000000000000000
       -0.000062307195406
       -0.000961025864405
       -0.007628892321478
       -0.034293533514368
       -0.051558962112266
       -0.027944971277607
       -0.009052419729150
       -0.002029462609817
        0.000000000000000
        0.000044776053737
        0.000005180668615
       -0.002590332605776
       -0.019933019879887
       -0.055172447979844
       -0.037792165114031
       -0.011239718143285
       -0.002335040345352
       -0.000319829057228
        0.000000000000000
        0.000823851383937
        0.002633224396798
        0.003326847964662
       -0.006000990849694
       -0.013973540763669
       -0.005510686969206
       -0.001356932500718
       -0.000217850467840
        0.000000000000000
        0.000634595500202
        0.002297524154399
        0.004496454227451
        0.003649869507854
       -0.000467678301703
       -0.000947554675275
       -0.000377852485823
        0.000000000000000
        0.000000000000000
        0.000000000000000
        0.000774292093293
        0.001536677726069
        0.001569796412284
        0.000669718508076
        0.000063869685777
       -0.000028785930497
        0.000000000000000
        0.000000000000000
        0.000000000000000
        0.000000000000000
        0.000000000000000
        0.000294677675547
        0.000188064477047
        0.000000000000000
        0.000000000000000
        0.000000000000000
        0.000000000000000
        0.000000000000000
        0.000000000000000
        0.000000000000000
        0.000000000000000
        0.000000000000000
        0.000000000000000
        0.000000000000000
        0.000000000000000
        0.000000000000000
        0.000000000000000
       -0.000719246941160
       -0.001667994670603
       -0.002033576864432
       -0.001283948213128
        0.000000000000000
        0.000000000000000
        0.000000000000000
        0.000000000000000
       -0.000536190284158
       -0.002456226792353
       -0.006073637402996
       -0.007712297556532
       -0.005047918146923
       -0.001849026593434
        0.000000000000000
        0.000000000000000
        0.000000000000000
       -0.000863334850975
       -0.004382805533184
       -0.013162600860701
       -0.018243325079148
       -0.011482705295194
       -0.004374040157721
       -0.001001934513609
        0.000000000000000
        0.000000000000000
       -0.000545718875092
       -0.003208501002504
       -0.011433886019221
       -0.020799914313267
       -0.014774040940735
       -0.005566858920289
       -0.001367458908014
        0.000000000000000
        0.000000000000000
       -0.000046501486331
       -0.000704154630307
       -0.003436768363180
       -0.007936074059818
       -0.007714809804800
       -0.003408577768589
       -0.000923296535744
        0.000000000000000
        0.000000000000000
        0.000000000000000
        0.000215597989904
       -0.000009474127678
       -0.001021029186568
       -0.001696564115713
       -0.001022026146307
       -0.000314009458596
        0.000000000000000
        0.000000000000000
        0.000000000000000
        0.000000000000000
        0.000247970691696
        0.000142521983718
       -0.000103231805695
       -0.000126390586816
        0.000000000000000
        0.000000000000000
        0.000000000000000
        0.000000000000000
        0.000000000000000
        0.000000000000000
        0.000000000000000
        0.000000000000000
        0.000000000000000
        0.000000000000000
        0.000000000000000
        0.000000000000000
        0.000000000000000
        0.000000000000000
        0.000000000000000
        0.000000000000000
        0.000000000000000
        0.000000000000000
        0.000000000000000
        0.000000000000000
        0.000000000000000
        0.000000000000000
        0.000000000000000
       -0.000523572677184
       -0.000600343627680
        0.000000000000000
        0.000000000000000
        0.000000000000000
        0.000000000000000
        0.000000000000000
        0.000000000000000
       -0.000739836102841
       -0.001717326919640
       -0.002100654320549
       -0.001331262051057
        0.000000000000000
        0.000000000000000
        0.000000000000000
        0.000000000000000
       -0.000318795139678
       -0.001342229550337
       -0.003170441035266
       -0.004156633179577
       -0.002946022599245
       -0.001178602073715
        0.000000000000000
        0.000000000000000
        0.000000000000000
       -0.000268928461694
       -0.001183667455005
       -0.003091819030849
       -0.004542528603435
       -0.003568747057606
       -0.001620984080282
       -0.000425449501525
        0.000000000000000
        0.000000000000000
        0.000000000000000
       -0.000488932590665
       -0.001469687534503
       -0.002500234096068
       -0.002233456152231
       -0.001112427266647
       -0.000327686330776
        0.000000000000000
        0.000000000000000
        0.000000000000000
        0.000000000000000
       -0.000333014231875
       -0.000696846278359
       -0.000733111022776
       -0.000394351190877
        0.000000000000000
        0.000000000000000
        0.000000000000000
        0.000000000000000
        0.000000000000000
        0.000000000000000
       -0.000089844087027
       -0.000119448696454
        0.000000000000000
        0.000000000000000
        0.000000000000000
        0.000000000000000
        0.000000000000000
        0.000000000000000
        0.000000000000000
        0.000000000000000
        0.000000000000000
        0.000000000000000
        0.000000000000000
        0.000000000000000
        0.000000000000000
        0.000000000000000
        0.000000000000000
        0.000000000000000
        0.000000000000000
        0.000000000000000
        0.000000000000000
        0.000000000000000
        0.000000000000000
        0.000000000000000
        0.000000000000000
        0.000000000000000
        0.000000000000000
        0.000000000000000
        0.000000000000000
        0.000000000000000
        0.000000000000000
        0.000000000000000
        0.000000000000000
        0.000000000000000
        0.000000000000000
        0.000000000000000
        0.000000000000000
        0.000000000000000
        0.000000000000000
        0.000000000000000
        0.000000000000000
        0.000000000000000
        0.000000000000000
        0.000000000000000
       -0.000501894958969
       -0.000613933659870
        0.000000000000000
        0.000000000000000
        0.000000000000000
        0.000000000000000
        0.000000000000000
        0.000000000000000
        0.000000000000000
       -0.000509743809355
       -0.000782868747743
       -0.000540682997850
        0.000000000000000
        0.000000000000000
        0.000000000000000
        0.000000000000000
        0.000000000000000
        0.000000000000000
        0.000000000000000
       -0.000436202204755
       -0.000392556505283
        0.000000000000000
        0.000000000000000
        0.000000000000000
        0.000000000000000
        0.000000000000000
        0.000000000000000
        0.000000000000000
        0.000000000000000
        0.000000000000000
        0.000000000000000
        0.000000000000000
        0.000000000000000
        0.000000000000000
        0.000000000000000
        0.000000000000000
        0.000000000000000
        0.000000000000000
        0.000000000000000
        0.000000000000000
        0.000000000000000
        0.000000000000000
        0.000000000000000
        0.000000000000000
        0.000000000000000
        0.000000000000000
        0.000000000000000
        0.000000000000000
        0.000000000000000
        0.000000000000000
        0.000000000000000
END_DATAGRID_3D
END_BLOCK_DATAGRID_3D
