ATOMS
         C    7.558905    7.558905    7.558905
         H    8.755769    8.755769    8.755769
         H    6.362040    6.362040    8.755769
         H    8.755769    6.362040    6.362040
         H    6.362040    8.755769    6.362040
BEGIN_BLOCK_DATAGRID_3D
units: coords = b, function = sqrt(b^-3)
BEGIN_DATAGRID_3D_function
      9      9      9
0.0 0.0 0.0
   15.117809    0.000000    0.000000
    0.000000   15.117809    0.000000
    0.000000    0.000000   15.117809
        0.000000000000000
        0.000000000000000
        0.000000000000000
        0.000000000000000
        0.000000000000000
        0.000000000000000
        0.000000000000000
        0.000000000000000
        0.000000000000000
        0.000000000000000
        0.000000000000000
        0.000000000000000
        0.000000000000000
        0.000000000000000
        0.000000000000000
        0.000000000000000
        0.000000000000000
        0.000000000000000
        0.000000000000000
        0.000000000000000
        0.000000000000000
        0.000000000000000
        0.000000000000000
        0.000000000000000
        0.000000000000000
        0.000000000000000
        0.000000000000000
        0.000000000000000
        0.000000000000000
        0.000000000000000
        0.000000000000000
       -0.000636235857144
       -0.000620827063265
        0.000000000000000
        0.000000000000000
        0.000000000000000
        0.000000000000000
        0.000000000000000
        0.000000000000000
       -0.000376851734029
       -0.000741473268549
       -0.000619994093068
        0.000000000000000
        0.000000000000000
        0.000000000000000
        0.000000000000000
        0.000000000000000
        0.000000000000000
       -0.000230843568297
       -0.000358574158886
        0.000000000000000
        0.000000000000000
        0.000000000000000
        0.000000000000000
        0.000000000000000
        0.000000000000000
        0.000000000000000
        0.000000000000000
        0.000000000000000
        0.000000000000000
        0.000000000000000
        0.000000000000000
        0.000000000000000
        0.000000000000000
        0.000000000000000
        0.000000000000000
        0.000000000000000
        0.000000000000000
        0.000000000000000
        0.000000000000000
        0.000000000000000
        0.000000000000000
        0.000000000000000
        0.000000000000000
        0.000000000000000
        0.000000000000000
        0.000000000000000
        0.000000000000000
        0.000000000000000
        0.000000000000000
        0.000000000000000
        0.000000000000000
        0.000000000000000
        0.000000000000000
        0.000000000000000
        0.000000000000000
        0.000000000000000
        0.000000000000000
        0.000000000000000
        0.000000000000000
        0.000000000000000
        0.000000000000000
        0.000000000000000
        0.000000000000000
       -0.000666449144434
       -0.000675295815412
        0.000000000000000
        0.000000000000000
        0.000000000000000
        0.000000000000000
        0.000000000000000
        0.000000000000000
       -0.001125141628105
       -0.002250180903010
       -0.002271683666711
       -0.001159690050498
        0.000000000000000
        0.000000000000000
        0.000000000000000
        0.000000000000000
       -0.000596679258155
       -0.002216723064470
       -0.004274499592740
       -0.004212789161196
       -0.002213616588441
       -0.000644210027670
        0.000000000000000
        0.000000000000000
       -0.000056152377122
       -0.000580180862089
       -0.002230098583390
       -0.004301902214277
       -0.004091597085988
       -0.002097935567497
       -0.000613595509091
        0.000000000000000
        0.000000000000000
        0.000012877270924
       -0.000156462319505
       -0.000945687779750
       -0.002029031780852
       -0.001948224437736
       -0.000977241935320
        0.000000000000000
        0.000000000000000
        0.000000000000000
        0.000000000000000
        0.000055550810310
       -0.000079656247025
       -0.000398563592522
       -0.000435060929589
        0.000000000000000
        0.000000000000000
        0.000000000000000
        0.000000000000000
        0.000000000000000
        0.000000000000000
        0.000056088387839
        0.000012298294855
        0.000000000000000
        0.000000000000000
        0.000000000000000
        0.000000000000000
        0.000000000000000
        0.000000000000000
        0.000000000000000
        0.000000000000000
        0.000000000000000
        0.000000000000000
        0.000000000000000
        0.000000000000000
        0.000000000000000
        0.000000000000000
        0.000000000000000
        0.000000000000000
        0.000000000000000
        0.000000000000000
        0.000000000000000
        0.000000000000000
        0.000000000000000
        0.000000000000000
        0.000000000000000
        0.000000000000000
        0.000000000000000
       -0.001089766328367
       -0.002199073029713
       -0.002233331266849
       -0.001143374331618
        0.000000000000000
        0.000000000000000
        0.000000000000000
        0.000000000000000
       -0.000955732644750
       -0.003945047599146
       -0.008272819749211
       -0.008496685094200
       -0.004186029765717
       -0.001114273025792
        0.000000000000000
        0.000000000000000
       -0.000128195932749
       -0.001649124723329
       -0.007801695573058
       -0.018983336193934
       -0.019281510696185
       -0.008214896846729
       -0.002100360774414
        0.000000000000000
        0.000000000000000
        0.000087506153850
       -0.000936916651730
       -0.007180355027652
       -0.019695961552010
       -0.017709356005331
       -0.007460001200368
       -0.001936574008518
        0.000000000000000
        0.000000000000000
        0.000336864455330
        0.000640713862271
       -0.000721625481304
       -0.005803521174822
       -0.006232552351148
       -0.003119664720478
       -0.000859880158050
        0.000000000000000
        0.000000000000000
        0.000262247001668
        0.000765992466195
        0.001004219014004
        0.000005355524237
       -0.000763263977256
       -0.000544632371775
        0.000000000000000
        0.000000000000000
        0.000000000000000
        0.000000000000000
        0.000303475401897
        0.000514378511841
        0.000409150250810
        0.000134669112201
        0.000000000000000
        0.000000000000000
        0.000000000000000
        0.000000000000000
        0.000000000000000
        0.000000000000000
        0.000000000000000
        0.000000000000000
        0.000000000000000
        0.000000000000000
        0.000000000000000
        0.000000000000000
        0.000000000000000
        0.000000000000000
        0.000000000000000
        0.000000000000000
       -0.000591733678535
       -0.000585473923363
        0.000000000000000
        0.000000000000000
        0.000000000000000
        0.000000000000000
        0.000000000000000
       -0.000519763403684
       -0.002033669997345
       -0.004026681545606
       -0.004036019214796
       -0.002141993633035
       -0.000626010431049
        0.000000000000000
        0.000000000000000
       -0.000086724959800
       -0.001466357008683
       -0.007318653560016
       -0.018277885484594
       -0.018840243739405
       -0.008065048845421
       -0.002067149505114
        0.000000000000000
        0.000000000000000
        0.000221091419662
       -0.001340708809155
       -0.014729583649029
       -0.053589434807995
       -0.057251990512183
       -0.017927779405137
       -0.003677771182927
       -0.000512845911215
        0.000204777877628
        0.001022267761327
        0.002121212697689
       -0.007655382089673
       -0.052238704285384
       -0.047215542514127
       -0.015399554241206
       -0.003293607001757
       -0.000478116155779
        0.000225429855799
        0.001338652679479
        0.005001574194304
        0.010705708450664
       -0.000915568605632
       -0.008227860303813
       -0.004576794347735
       -0.001329224700513
        0.000000000000000
        0.000000000000000
        0.000831462828776
        0.002915567029158
        0.006111186932358
        0.005340924173486
        0.001552909043848
       -0.000114106300075
       -0.000164911900933
        0.000000000000000
        0.000000000000000
        0.000283914424553
        0.000931243375264
        0.001792087730767
        0.001886383419970
        0.001002121454394
        0.000286377572652
        0.000000000000000
        0.000000000000000
        0.000000000000000
        0.000000000000000
        0.000000000000000
        0.000317369181212
        0.000343581976704
        0.000000000000000
        0.000000000000000
        0.000000000000000
        0.000000000000000
        0.000000000000000
        0.000000000000000
        0.000000000000000
       -0.000312300267668
       -0.000653181433785
       -0.000566202669220
        0.000000000000000
        0.000000000000000
        0.000000000000000
        0.000000000000000
       -0.000008335185662
       -0.000398400024367
       -0.001822578427477
       -0.003789536398804
       -0.003749032552113
       -0.001965329282558
       -0.000584155180895
        0.000000000000000
        0.000000000000000
        0.000217853252508
       -0.000356087903330
       -0.005541027697591
       -0.017349677706030
       -0.016399247634964
       -0.007059911498376
       -0.001855331360264
        0.000000000000000
        0.000224697085500
        0.001181021670261
        0.003052606714636
       -0.003975646043823
       -0.046014278331845
       -0.044409656404217
       -0.014796012276232
       -0.003199527876288
       -0.000468983568881
        0.000420178782754
        0.002457047016397
        0.011393335122075
        0.030536630327173
        0.000102863975894
       -0.031046944562612
       -0.011821271611253
       -0.002612379536622
       -0.000453354783706
        0.000339098149869
        0.002421489445371
        0.011280023781025
        0.035838632865680
        0.046075324167752
        0.012015510783522
       -0.000088800147880
       -0.000626517536374
       -0.000139184287181
        0.000000000000000
        0.001297258563112
        0.005134817352980
        0.013105267145267
        0.017365616208159
        0.008706484284949
        0.002092610980190
        0.000248812654852
        0.000000000000000
        0.000000000000000
        0.000382428307754
        0.001433284403441
        0.003074100596086
        0.003792090158092
        0.002476126562324
        0.000890090856277
        0.000187724998916
        0.000000000000000
        0.000000000000000
        0.000000000000000
        0.000000000000000
        0.000457163225058
        0.000653389717272
        0.000419100663528
        0.000000000000000
        0.000000000000000
        0.000000000000000
        0.000000000000000
        0.000000000000000
        0.000000000000000
       -0.000165477986742
       -0.000284638046457
        0.000000000000000
        0.000000000000000
        0.000000000000000
        0.000000000000000
        0.000000000000000
        0.000066521131716
        0.000046676755803
       -0.000514407337745
       -0.001525995649291
       -0.001633561985789
       -0.000866930274341
        0.000000000000000
        0.000000000000000
        0.000000000000000
        0.000501069706169
        0.001360519557752
        0.001183803248136
       -0.003555770261523
       -0.005034461488593
       -0.002733797124935
       -0.000785287259112
        0.000000000000000
        0.000255226989548
        0.001591055576058
        0.006460208568281
        0.016121466307956
        0.005578589643071
       -0.005457144044454
       -0.003864460083557
       -0.001198899006899
        0.000000000000000
        0.000359017357741
        0.002580243354304
        0.012211417797973
        0.039518368911530
        0.052299750121290
        0.014821396893431
        0.000514741817094
       -0.000532438410905
       -0.000130051700283
        0.000000000000000
        0.002162625486286
        0.009462797217995
        0.028194802292748
        0.049000691722405
        0.029969911938139
        0.006025760103729
        0.000566006075028
       -0.000005809089921
        0.000000000000000
        0.000983318289825
        0.004206846656992
        0.010744633806155
        0.016514407551387
        0.011417303585794
        0.003619909487638
        0.000653987388977
        0.000000000000000
        0.000000000000000
        0.000000000000000
        0.001079189769778
        0.002655083989397
        0.003669996903938
        0.002735825472185
        0.001125696746996
        0.000254635362427
        0.000000000000000
        0.000000000000000
        0.000000000000000
        0.000000000000000
        0.000000000000000
        0.000533218011568
        0.000431124637075
        0.000000000000000
        0.000000000000000
        0.000000000000000
        0.000000000000000
        0.000000000000000
        0.000000000000000
        0.000000000000000
        0.000000000000000
        0.000000000000000
        0.000000000000000
        0.000000000000000
        0.000000000000000
        0.000000000000000
        0.000000000000000
        0.000166089201321
        0.000157516951716
       -0.000134128630257
       -0.000282663007508
        0.000000000000000
        0.000000000000000
        0.000000000000000
        0.000000000000000
        0.000356115095704
        0.001153812161991
        0.001876978890555
        0.000990553604048
       -0.000192716325751
       -0.000361324722657
        0.000000000000000
        0.000000000000000
        0.000000000000000
        0.000995668079615
        0.003635372724639
        0.008016615661798
        0.007588675086785
        0.002750999906403
        0.000271761295467
       -0.000090319001995
        0.000000000000000
        0.000000000000000
        0.001427605661770
        0.005715646101380
        0.014744594475328
        0.019711900054138
        0.010016592655316
        0.002492700682182
        0.000330055303106
        0.000000000000000
        0.000000000000000
        0.001024789262774
        0.004389614371638
        0.011227675819196
        0.017219858260727
        0.011858570542574
        0.003769757488946
        0.000687198658277
        0.000000000000000
        0.000000000000000
        0.000000000000000
        0.001828641380135
        0.004886549958495
        0.007284389694028
        0.005564137995796
        0.002190275118150
        0.000458858742710
        0.000000000000000
        0.000000000000000
        0.000000000000000
        0.000000000000000
        0.001236099323824
        0.001925584174782
        0.001549400636456
        0.000655851424187
        0.000000000000000
        0.000000000000000
        0.000000000000000
        0.000000000000000
        0.000000000000000
        0.000000000000000
        0.000000000000000
        0.000000000000000
        0.000000000000000
        0.000000000000000
        0.000000000000000
        0.000000000000000
        0.000000000000000
        0.000000000000000
        0.000000000000000
        0.000000000000000
        0.000000000000000
        0.000000000000000
        0.000000000000000
        0.000000000000000
        0.000000000000000
        0.000000000000000
        0.000000000000000
        0.000128370737645
        0.000090139655399
        0.000000000000000
        0.000000000000000
        0.000000000000000
        0.000000000000000
        0.000000000000000
        0.000000000000000
        0.000414013792907
        0.000751551710582
        0.000673585213074
        0.000287067034282
        0.000000000000000
        0.000000000000000
        0.000000000000000
        0.000000000000000
        0.000337558285345
        0.001134382450572
        0.002223368172771
        0.002389419551531
        0.001316783906341
        0.000396689233630
        0.000000000000000
        0.000000000000000
        0.000000000000000
        0.000430245499214
        0.001615065241162
        0.003481620751999
        0.004304455973564
        0.002818691096199
        0.001022697141216
        0.000217165327111
        0.000000000000000
        0.000000000000000
        0.000000000000000
        0.001156105624248
        0.002838137056522
        0.003917814951072
        0.002912595418585
        0.001197319702402
        0.000272834959048
        0.000000000000000
        0.000000000000000
        0.000000000000000
        0.000000000000000
        0.001271474623562
        0.001976692048079
        0.001587753036318
        0.000672167143067
        0.000000000000000
        0.000000000000000
        0.000000000000000
        0.000000000000000
        0.000000000000000
        0.000000000000000
        0.000564357670432
        0.000487768539957
        0.000000000000000
        0.000000000000000
        0.000000000000000
        0.000000000000000
        0.000000000000000
        0.000000000000000
        0.000000000000000
        0.000000000000000
        0.000000000000000
        0.000000000000000
        0.000000000000000
        0.000000000000000
        0.000000000000000
        0.000000000000000
        0.000000000000000
        0.000000000000000
        0.000000000000000
        0.000000000000000
        0.000000000000000
        0.000000000000000
        0.000000000000000
        0.000000000000000
        0.000000000000000
        0.000000000000000
        0.000000000000000
        0.000000000000000
        0.000000000000000
        0.000000000000000
        0.000000000000000
        0.000000000000000
        0.000000000000000
        0.000000000000000
        0.000000000000000
        0.000000000000000
        0.000000000000000
        0.000000000000000
        0.000000000000000
        0.000000000000000
        0.000000000000000
        0.000000000000000
        0.000000000000000
        0.000000000000000
        0.000382734762767
        0.000417518089133
        0.000000000000000
        0.000000000000000
        0.000000000000000
        0.000000000000000
        0.000000000000000
        0.000000000000000
        0.000000000000000
        0.000521714691418
        0.000741681552036
        0.000472892087376
        0.000000000000000
        0.000000000000000
        0.000000000000000
        0.000000000000000
        0.000000000000000
        0.000000000000000
        0.000000000000000
        0.000577720190177
        0.000466477776977
        0.000000000000000
        0.000000000000000
        0.000000000000000
        0.000000000000000
        0.000000000000000
        0.000000000000000
        0.000000000000000
        0.000000000000000
        0.000000000000000
        0.000000000000000
        0.000000000000000
        0.000000000000000
        0.000000000000000
        0.000000000000000
        0.000000000000000
        0.000000000000000
        0.000000000000000
        0.000000000000000
        0.000000000000000
        0.000000000000000
        0.000000000000000
        0.000000000000000
        0.000000000000000
        0.000000000000000
        0.000000000000000
        0.000000000000000
        0.000000000000000
        0.000000000000000
        0.000000000000000
        0.000000000000000
END_DATAGRID_3D
END_BLOCK_DATAGRID_3D
