ATOMS
         C    7.558905    7.558905    7.558905
         H    8.755769    8.755769    8.755769
         H    6.362040    6.362040    8.755769
         H    8.755769    6.362040    6.362040
         H    6.362040    8.755769    6.362040
BEGIN_BLOCK_DATAGRID_3D
units: coords = b, function = sqrt(b^-3)
BEGIN_DATAGRID_3D_function
      9      9      9
0.0 0.0 0.0
   15.117809    0.000000    0.000000
    0.000000   15.117809    0.000000
    0.000000    0.000000   15.117809
        0.000000000000000
        0.000000000000000
        0.000000000000000
        0.000000000000000
        0.000000000000000
        0.000000000000000
        0.000000000000000
        0.000000000000000
        0.000000000000000
        0.000000000000000
        0.000000000000000
        0.000000000000000
        0.000000000000000
        0.000000000000000
        0.000000000000000
        0.000000000000000
        0.000000000000000
        0.000000000000000
        0.000000000000000
        0.000000000000000
        0.000000000000000
        0.000000000000000
        0.000000000000000
        0.000000000000000
        0.000000000000000
        0.000000000000000
        0.000000000000000
        0.000000000000000
        0.000000000000000
        0.000000000000000
        0.000000000000000
       -0.000403524153436
       -0.000180378220013
        0.000000000000000
        0.000000000000000
        0.000000000000000
        0.000000000000000
        0.000000000000000
        0.000000000000000
       -0.000531568817556
       -0.000482797713946
       -0.000116159433471
        0.000000000000000
        0.000000000000000
        0.000000000000000
        0.000000000000000
        0.000000000000000
        0.000000000000000
       -0.000371927959551
       -0.000244204097591
        0.000000000000000
        0.000000000000000
        0.000000000000000
        0.000000000000000
        0.000000000000000
        0.000000000000000
        0.000000000000000
        0.000000000000000
        0.000000000000000
        0.000000000000000
        0.000000000000000
        0.000000000000000
        0.000000000000000
        0.000000000000000
        0.000000000000000
        0.000000000000000
        0.000000000000000
        0.000000000000000
        0.000000000000000
        0.000000000000000
        0.000000000000000
        0.000000000000000
        0.000000000000000
        0.000000000000000
        0.000000000000000
        0.000000000000000
        0.000000000000000
        0.000000000000000
        0.000000000000000
        0.000000000000000
        0.000000000000000
        0.000000000000000
        0.000000000000000
        0.000000000000000
        0.000000000000000
        0.000000000000000
        0.000000000000000
        0.000000000000000
        0.000000000000000
        0.000000000000000
        0.000000000000000
        0.000000000000000
        0.000000000000000
        0.000000000000000
       -0.000526494255989
       -0.000316476581898
        0.000000000000000
        0.000000000000000
        0.000000000000000
        0.000000000000000
        0.000000000000000
        0.000000000000000
       -0.001559059006124
       -0.001732681440393
       -0.000760517681956
       -0.000052648819152
        0.000000000000000
        0.000000000000000
        0.000000000000000
        0.000000000000000
       -0.001823538773259
       -0.003420417706032
       -0.003033971576803
       -0.000863204605762
        0.000290824924809
        0.000259654974021
        0.000000000000000
        0.000000000000000
       -0.000831448530351
       -0.002564171986478
       -0.004047738633553
       -0.002801630370586
       -0.000057686014678
        0.000838990309303
        0.000405615481915
        0.000000000000000
        0.000000000000000
       -0.000658566904748
       -0.001808246441866
       -0.002475649164856
       -0.001071453071428
        0.000705873452499
        0.000802905511060
        0.000000000000000
        0.000000000000000
        0.000000000000000
        0.000000000000000
       -0.000651308337330
       -0.000756903835101
        0.000007499763218
        0.000538425743925
        0.000000000000000
        0.000000000000000
        0.000000000000000
        0.000000000000000
        0.000000000000000
        0.000000000000000
       -0.000082435348829
        0.000100661207553
        0.000000000000000
        0.000000000000000
        0.000000000000000
        0.000000000000000
        0.000000000000000
        0.000000000000000
        0.000000000000000
        0.000000000000000
        0.000000000000000
        0.000000000000000
        0.000000000000000
        0.000000000000000
        0.000000000000000
        0.000000000000000
        0.000000000000000
        0.000000000000000
        0.000000000000000
        0.000000000000000
        0.000000000000000
        0.000000000000000
        0.000000000000000
        0.000000000000000
        0.000000000000000
        0.000000000000000
        0.000000000000000
       -0.001835222644665
       -0.002127897063402
       -0.001054139668583
       -0.000176391090280
        0.000000000000000
        0.000000000000000
        0.000000000000000
        0.000000000000000
       -0.003420910460772
       -0.007130770165288
       -0.007249559472166
       -0.002530958373634
        0.000142653574773
        0.000345185836648
        0.000000000000000
        0.000000000000000
       -0.002320774081125
       -0.008285115449247
       -0.015951727949658
       -0.014772883573828
       -0.001852784812820
        0.002257089537894
        0.001234827333367
        0.000000000000000
        0.000000000000000
       -0.003275761546270
       -0.010918220108556
       -0.020654262060585
       -0.012828958434012
        0.004507871866442
        0.005532210842422
        0.002109618930497
        0.000000000000000
        0.000000000000000
       -0.002336915674672
       -0.007076749970031
       -0.011058730727481
       -0.001373506620316
        0.006798261501718
        0.005196749636470
        0.001690778871409
        0.000000000000000
        0.000000000000000
       -0.000874107495848
       -0.002306544653901
       -0.002288702058504
        0.001863550206031
        0.004042404352511
        0.002437843644272
        0.000000000000000
        0.000000000000000
        0.000000000000000
        0.000000000000000
       -0.000352530568919
       -0.000047948672722
        0.000961754447629
        0.001205227434950
        0.000000000000000
        0.000000000000000
        0.000000000000000
        0.000000000000000
        0.000000000000000
        0.000000000000000
        0.000000000000000
        0.000000000000000
        0.000000000000000
        0.000000000000000
        0.000000000000000
        0.000000000000000
        0.000000000000000
        0.000000000000000
        0.000000000000000
        0.000000000000000
       -0.000747373978937
       -0.000451191635358
        0.000000000000000
        0.000000000000000
        0.000000000000000
        0.000000000000000
        0.000000000000000
       -0.002430091624656
       -0.004850005180095
       -0.004950065687472
       -0.002216488761373
       -0.000252224356582
        0.000122969811168
        0.000000000000000
        0.000000000000000
       -0.002651163293980
       -0.009727128325549
       -0.019724142449158
       -0.020226993142517
       -0.005230596305094
        0.001121142197717
        0.000985400038604
        0.000000000000000
        0.000000000000000
       -0.005994403809130
       -0.022743996819530
       -0.052211456936131
       -0.051550093911584
        0.001971291457937
        0.009006967963156
        0.003487639542647
        0.000690294032061
       -0.001150673761079
       -0.007497684651249
       -0.030474439202093
       -0.074539627689111
       -0.034032686494191
        0.039029402312845
        0.022042977559735
        0.006102606939789
        0.000989326797937
       -0.000859530138694
       -0.004912250403525
       -0.017140513058217
       -0.031873521436866
        0.016039868535317
        0.037207453953991
        0.018926673323032
        0.005302034776322
        0.000000000000000
        0.000000000000000
       -0.001734669329663
       -0.004333986254480
       -0.002902948789967
        0.011795531500159
        0.015906818952660
        0.008678513671292
        0.002488509112046
        0.000000000000000
        0.000000000000000
       -0.000328538309346
       -0.000497044934477
        0.000791877900495
        0.003554987976012
        0.004157636147287
        0.002267437442722
        0.000000000000000
        0.000000000000000
        0.000000000000000
        0.000000000000000
        0.000000000000000
        0.000281955528724
        0.000586027015794
        0.000000000000000
        0.000000000000000
        0.000000000000000
        0.000000000000000
        0.000000000000000
        0.000000000000000
        0.000000000000000
       -0.001035372564096
       -0.001165430511827
       -0.000528185516882
        0.000000000000000
        0.000000000000000
        0.000000000000000
        0.000000000000000
       -0.001212398664098
       -0.003998089019403
       -0.007230234720928
       -0.006762885205178
       -0.002679893290958
       -0.000166345291170
        0.000184475761284
        0.000000000000000
        0.000000000000000
       -0.004314462956186
       -0.015501126063971
       -0.033455413823814
       -0.030967958550890
       -0.005520528365932
        0.002499781288688
        0.001499498953033
        0.000000000000000
       -0.001310627682119
       -0.008764086627954
       -0.037821481396632
       -0.103258247835151
       -0.082151862144423
        0.017539738944400
        0.017468686896050
        0.005396493774178
        0.000921150540026
       -0.001711884682839
       -0.009933908094097
       -0.045488403953801
       -0.120671728639832
       -0.000000000000001
        0.120671728639833
        0.045488403953802
        0.009933908094097
        0.001711884682839
       -0.000986061054270
       -0.005792762687694
       -0.019429738437367
       -0.022652478644685
        0.082151862144425
        0.108370987535438
        0.039782532937951
        0.009160355541469
        0.001375538196362
        0.000000000000000
       -0.001802616729487
       -0.003596368596804
        0.003559476824615
        0.030967958550890
        0.035416465365132
        0.016597713372087
        0.004617580732639
        0.000000000000000
        0.000000000000000
       -0.000297503002805
       -0.000136772485284
        0.002283624377442
        0.006762885205179
        0.007626503634444
        0.004301206795857
        0.001325425905619
        0.000000000000000
        0.000000000000000
        0.000000000000000
        0.000000000000000
        0.000463275002639
        0.001165430511827
        0.001100283078340
        0.000000000000000
        0.000000000000000
        0.000000000000000
        0.000000000000000
        0.000000000000000
        0.000000000000000
       -0.000882026097330
       -0.000816184102042
        0.000000000000000
        0.000000000000000
        0.000000000000000
        0.000000000000000
        0.000000000000000
       -0.001085907542998
       -0.003410695504462
       -0.005843205695337
       -0.004960062324413
       -0.001702661925374
       -0.000033625809774
        0.000000000000000
        0.000000000000000
        0.000000000000000
       -0.003645742750641
       -0.012755371528143
       -0.025936647718483
       -0.018748949047229
       -0.002371507093618
        0.002272089401539
        0.001130411189117
        0.000000000000000
       -0.001098814861129
       -0.006926522778393
       -0.028640618556945
       -0.074152600901702
       -0.034168414979167
        0.015993135328939
        0.013529319227195
        0.004323086872512
        0.000000000000000
       -0.001146014975309
       -0.007059164664399
       -0.026776780631907
       -0.051371098790725
        0.034032686494192
        0.086881324166993
        0.035208242274266
        0.008454242375859
        0.001307361938452
        0.000000000000000
       -0.003630717839704
       -0.009711995730697
       -0.000989132346797
        0.069678640355436
        0.104054830880634
        0.036774163652007
        0.008351133639272
        0.001268050967763
        0.000000000000000
       -0.000967757007182
       -0.001223474747282
        0.006188830590117
        0.027180410689588
        0.034070192813545
        0.015968215584907
        0.004395012041700
        0.000000000000000
        0.000000000000000
        0.000000000000000
        0.000196279991708
        0.002395030958182
        0.006355140035873
        0.007267816556215
        0.004159964795521
        0.001291476041177
        0.000000000000000
        0.000000000000000
        0.000000000000000
        0.000000000000000
        0.000000000000000
        0.000977531065184
        0.001051262203964
        0.000000000000000
        0.000000000000000
        0.000000000000000
        0.000000000000000
        0.000000000000000
        0.000000000000000
        0.000000000000000
        0.000000000000000
        0.000000000000000
        0.000000000000000
        0.000000000000000
        0.000000000000000
        0.000000000000000
        0.000000000000000
       -0.001522898540727
       -0.002608780192461
       -0.002036537247170
       -0.000628494789765
        0.000000000000000
        0.000000000000000
        0.000000000000000
        0.000000000000000
       -0.001621955428117
       -0.005366093154202
       -0.009103270956793
       -0.005751785303117
       -0.000324268758721
        0.001047875067234
        0.000000000000000
        0.000000000000000
        0.000000000000000
       -0.003043496405632
       -0.010012607812592
       -0.017780865780970
       -0.005579910926755
        0.006737050357324
        0.005753853436361
        0.001928141429753
        0.000000000000000
        0.000000000000000
       -0.002841318139403
       -0.008179274552218
       -0.009241674938614
        0.012828958434013
        0.025388065132758
        0.013565283818353
        0.004007460755176
        0.000000000000000
        0.000000000000000
       -0.001298146220038
       -0.002665487623584
        0.002416416090617
        0.021726301120899
        0.030692381321271
        0.014832268244730
        0.004145584746937
        0.000000000000000
        0.000000000000000
        0.000000000000000
       -0.000064808250733
        0.003412634571499
        0.011137794569252
        0.013922931388931
        0.007529984233329
        0.002150877087317
        0.000000000000000
        0.000000000000000
        0.000000000000000
        0.000000000000000
        0.001258489999480
        0.003202679862943
        0.003710868533766
        0.002051820199926
        0.000000000000000
        0.000000000000000
        0.000000000000000
        0.000000000000000
        0.000000000000000
        0.000000000000000
        0.000000000000000
        0.000000000000000
        0.000000000000000
        0.000000000000000
        0.000000000000000
        0.000000000000000
        0.000000000000000
        0.000000000000000
        0.000000000000000
        0.000000000000000
        0.000000000000000
        0.000000000000000
        0.000000000000000
        0.000000000000000
        0.000000000000000
        0.000000000000000
        0.000000000000000
       -0.000646461149933
       -0.000501428646825
        0.000000000000000
        0.000000000000000
        0.000000000000000
        0.000000000000000
        0.000000000000000
        0.000000000000000
       -0.001224120772316
       -0.001899825030081
       -0.001082282562759
        0.000038306901260
        0.000000000000000
        0.000000000000000
        0.000000000000000
        0.000000000000000
       -0.000755878947596
       -0.002099493997073
       -0.002575678629985
       -0.000333621276973
        0.001749100769414
        0.001430906121888
        0.000000000000000
        0.000000000000000
        0.000000000000000
       -0.000678453136552
       -0.001570689518209
       -0.000898871709932
        0.002801630370586
        0.005004296358164
        0.003295871195384
        0.001104286184988
        0.000000000000000
        0.000000000000000
        0.000000000000000
       -0.000410272859689
        0.000965443484119
        0.004439045925204
        0.005914532400603
        0.003616915514130
        0.001154790878323
        0.000000000000000
        0.000000000000000
        0.000000000000000
        0.000000000000000
        0.000982326360939
        0.002807464239934
        0.003417246547138
        0.001928077928798
        0.000000000000000
        0.000000000000000
        0.000000000000000
        0.000000000000000
        0.000000000000000
        0.000000000000000
        0.000927261695261
        0.001045373080660
        0.000000000000000
        0.000000000000000
        0.000000000000000
        0.000000000000000
        0.000000000000000
        0.000000000000000
        0.000000000000000
        0.000000000000000
        0.000000000000000
        0.000000000000000
        0.000000000000000
        0.000000000000000
        0.000000000000000
        0.000000000000000
        0.000000000000000
        0.000000000000000
        0.000000000000000
        0.000000000000000
        0.000000000000000
        0.000000000000000
        0.000000000000000
        0.000000000000000
        0.000000000000000
        0.000000000000000
        0.000000000000000
        0.000000000000000
        0.000000000000000
        0.000000000000000
        0.000000000000000
        0.000000000000000
        0.000000000000000
        0.000000000000000
        0.000000000000000
        0.000000000000000
        0.000000000000000
        0.000000000000000
        0.000000000000000
        0.000000000000000
        0.000000000000000
        0.000000000000000
        0.000000000000000
        0.000000000000000
       -0.000228142609055
        0.000014047011343
        0.000000000000000
        0.000000000000000
        0.000000000000000
        0.000000000000000
        0.000000000000000
        0.000000000000000
        0.000000000000000
       -0.000040528743901
        0.000482797713946
        0.000688256994928
        0.000000000000000
        0.000000000000000
        0.000000000000000
        0.000000000000000
        0.000000000000000
        0.000000000000000
        0.000000000000000
        0.000633681239683
        0.000780448788619
        0.000000000000000
        0.000000000000000
        0.000000000000000
        0.000000000000000
        0.000000000000000
        0.000000000000000
        0.000000000000000
        0.000000000000000
        0.000000000000000
        0.000000000000000
        0.000000000000000
        0.000000000000000
        0.000000000000000
        0.000000000000000
        0.000000000000000
        0.000000000000000
        0.000000000000000
        0.000000000000000
        0.000000000000000
        0.000000000000000
        0.000000000000000
        0.000000000000000
        0.000000000000000
        0.000000000000000
        0.000000000000000
        0.000000000000000
        0.000000000000000
        0.000000000000000
        0.000000000000000
        0.000000000000000
END_DATAGRID_3D
END_BLOCK_DATAGRID_3D
