ATOMS
         C    7.558905    7.558905    7.558905
         H    8.755769    8.755769    8.755769
         H    6.362040    6.362040    8.755769
         H    8.755769    6.362040    6.362040
         H    6.362040    8.755769    6.362040
BEGIN_BLOCK_DATAGRID_3D
units: coords = b, function = sqrt(b^-3)
BEGIN_DATAGRID_3D_function
      9      9      9
0.0 0.0 0.0
   15.117809    0.000000    0.000000
    0.000000   15.117809    0.000000
    0.000000    0.000000   15.117809
        0.000000000000000
        0.000000000000000
        0.000000000000000
        0.000000000000000
        0.000000000000000
        0.000000000000000
        0.000000000000000
        0.000000000000000
        0.000000000000000
        0.000000000000000
        0.000000000000000
        0.000000000000000
        0.000000000000000
        0.000000000000000
        0.000000000000000
        0.000000000000000
        0.000000000000000
        0.000000000000000
        0.000000000000000
        0.000000000000000
        0.000000000000000
        0.000000000000000
        0.000000000000000
        0.000000000000000
        0.000000000000000
        0.000000000000000
        0.000000000000000
        0.000000000000000
        0.000000000000000
        0.000000000000000
        0.000000000000000
        0.001216620461579
        0.001207589008958
        0.000000000000000
        0.000000000000000
        0.000000000000000
        0.000000000000000
        0.000000000000000
        0.000000000000000
        0.000694977557458
        0.001429076538330
        0.001222291766768
        0.000000000000000
        0.000000000000000
        0.000000000000000
        0.000000000000000
        0.000000000000000
        0.000000000000000
        0.000427231911668
        0.000700648862647
        0.000000000000000
        0.000000000000000
        0.000000000000000
        0.000000000000000
        0.000000000000000
        0.000000000000000
        0.000000000000000
        0.000000000000000
        0.000000000000000
        0.000000000000000
        0.000000000000000
        0.000000000000000
        0.000000000000000
        0.000000000000000
        0.000000000000000
        0.000000000000000
        0.000000000000000
        0.000000000000000
        0.000000000000000
        0.000000000000000
        0.000000000000000
        0.000000000000000
        0.000000000000000
        0.000000000000000
        0.000000000000000
        0.000000000000000
        0.000000000000000
        0.000000000000000
        0.000000000000000
        0.000000000000000
        0.000000000000000
        0.000000000000000
        0.000000000000000
        0.000000000000000
        0.000000000000000
        0.000000000000000
        0.000000000000000
        0.000000000000000
        0.000000000000000
        0.000000000000000
        0.000000000000000
        0.000000000000000
        0.000000000000000
        0.000000000000000
        0.001242211674363
        0.001281525793672
        0.000000000000000
        0.000000000000000
        0.000000000000000
        0.000000000000000
        0.000000000000000
        0.000000000000000
        0.002025958778907
        0.004221594136157
        0.004369580291646
        0.002261296758213
        0.000000000000000
        0.000000000000000
        0.000000000000000
        0.000000000000000
        0.000948491047173
        0.003976794952221
        0.008111638900703
        0.008225967290476
        0.004390329132292
        0.001292896075603
        0.000000000000000
        0.000000000000000
       -0.000000145704571
        0.000834173456115
        0.003981639456989
        0.008292798652568
        0.008170377578701
        0.004272347531848
        0.001260607386942
        0.000000000000000
        0.000000000000000
       -0.000112120639858
        0.000101223802079
        0.001657007401973
        0.004040378134987
        0.004058229640737
        0.002072573483821
        0.000000000000000
        0.000000000000000
        0.000000000000000
        0.000000000000000
       -0.000177590420635
        0.000121972642725
        0.000884926851805
        0.000995105752087
        0.000000000000000
        0.000000000000000
        0.000000000000000
        0.000000000000000
        0.000000000000000
        0.000000000000000
       -0.000100750357928
        0.000018250008008
        0.000000000000000
        0.000000000000000
        0.000000000000000
        0.000000000000000
        0.000000000000000
        0.000000000000000
        0.000000000000000
        0.000000000000000
        0.000000000000000
        0.000000000000000
        0.000000000000000
        0.000000000000000
        0.000000000000000
        0.000000000000000
        0.000000000000000
        0.000000000000000
        0.000000000000000
        0.000000000000000
        0.000000000000000
        0.000000000000000
        0.000000000000000
        0.000000000000000
        0.000000000000000
        0.000000000000000
        0.000000000000000
        0.001886643341428
        0.004022220903285
        0.004221457693985
        0.002198872868059
        0.000000000000000
        0.000000000000000
        0.000000000000000
        0.000000000000000
        0.001397121196475
        0.006800472601418
        0.015318043104409
        0.016345407791471
        0.008191459315343
        0.002209166483548
        0.000000000000000
        0.000000000000000
       -0.000091451280131
        0.002097769599918
        0.013322593885702
        0.035686434705561
        0.037861094551848
        0.016439902623585
        0.004266631751672
        0.000000000000000
        0.000000000000000
       -0.000654079874230
        0.000372236484854
        0.011726206646427
        0.037973592209869
        0.036066951313168
        0.015570298566825
        0.004105850676800
        0.000000000000000
        0.000000000000000
       -0.001004460978633
       -0.002173754613095
        0.000356865889810
        0.012106723254033
        0.013771577787601
        0.007043763173185
        0.001956230974520
        0.000000000000000
        0.000000000000000
       -0.000643563515799
       -0.001786362763817
       -0.002079259780981
        0.000624491947270
        0.002341060171685
        0.001512747020564
        0.000000000000000
        0.000000000000000
        0.000000000000000
        0.000000000000000
       -0.000633269900310
       -0.000959286920946
       -0.000570450100714
       -0.000021863647039
        0.000000000000000
        0.000000000000000
        0.000000000000000
        0.000000000000000
        0.000000000000000
        0.000000000000000
        0.000000000000000
        0.000000000000000
        0.000000000000000
        0.000000000000000
        0.000000000000000
        0.000000000000000
        0.000000000000000
        0.000000000000000
        0.000000000000000
        0.000000000000000
        0.001043159577591
        0.001070972582433
        0.000000000000000
        0.000000000000000
        0.000000000000000
        0.000000000000000
        0.000000000000000
        0.000642505160355
        0.003255615272612
        0.007145032686041
        0.007543280115700
        0.004116378699828
        0.001223942923912
        0.000000000000000
        0.000000000000000
       -0.000258121729471
        0.001370321715132
        0.011419535325482
        0.032935016507893
        0.036157100180064
        0.015866854696330
        0.004140803916869
        0.000000000000000
        0.000000000000000
       -0.001406565915688
       -0.000883090595024
        0.021323485084094
        0.098489829773235
        0.113195577482202
        0.036438086559084
        0.007655854312200
        0.001093500447336
       -0.000599848907255
       -0.003233746968644
       -0.008812193804105
        0.004832454461817
        0.100736421073003
        0.100277467333848
        0.033769238273999
        0.007363163428176
        0.001077434349142
       -0.000592563217432
       -0.003439020017585
       -0.012362872172110
       -0.024685267527877
        0.006620092022430
        0.023088217837081
        0.012182331023214
        0.003455971519880
        0.000000000000000
        0.000000000000000
       -0.001922974101581
       -0.006356867531513
       -0.012081885793089
       -0.007977972037999
       -0.000120294897292
        0.001733567464250
        0.000739576526272
        0.000000000000000
        0.000000000000000
       -0.000615462168349
       -0.001898548884539
       -0.003326445821085
       -0.003015616226509
       -0.001206209668420
       -0.000161050363554
        0.000000000000000
        0.000000000000000
        0.000000000000000
        0.000000000000000
        0.000000000000000
       -0.000570035352528
       -0.000565574135704
        0.000000000000000
        0.000000000000000
        0.000000000000000
        0.000000000000000
        0.000000000000000
        0.000000000000000
        0.000000000000000
        0.000440825201546
        0.001084710830461
        0.001014438211658
        0.000000000000000
        0.000000000000000
        0.000000000000000
        0.000000000000000
       -0.000192322469117
        0.000110809657010
        0.002376175258198
        0.006294476378283
        0.006847560585908
        0.003765188914833
        0.001149049699310
        0.000000000000000
        0.000000000000000
       -0.001178070440462
       -0.001939688254671
        0.005268448240790
        0.028823065550925
        0.031007954506198
        0.014040537979471
        0.003798065292658
        0.000000000000000
       -0.000680540379180
       -0.003872604952773
       -0.012518534012073
       -0.009655141191812
        0.076461885720627
        0.089436641694196
        0.031461659664698
        0.007006952650045
        0.001043041678019
       -0.001141496272312
       -0.006623997032380
       -0.030331975084079
       -0.080464723936532
        0.000000000000000
        0.080464723936530
        0.030331975084078
        0.006623997032380
        0.001141496272312
       -0.000850907187079
       -0.005834000519543
       -0.025656966172582
       -0.074302981900030
       -0.076461885720628
       -0.005478518602357
        0.006713840519956
        0.002699652822271
        0.000488405888239
        0.000000000000000
       -0.002900839622015
       -0.010794650211177
       -0.025203261014082
       -0.028823065550925
       -0.011073141732907
       -0.001306199513623
        0.000280844769818
        0.000000000000000
        0.000000000000000
       -0.000814490163536
       -0.002867963244190
       -0.005674608455407
       -0.006294476378283
       -0.003549127388700
       -0.001008035327654
       -0.000142237066657
        0.000000000000000
        0.000000000000000
        0.000000000000000
        0.000000000000000
       -0.000822303720717
       -0.001084710830461
       -0.000632959692486
        0.000000000000000
        0.000000000000000
        0.000000000000000
        0.000000000000000
        0.000000000000000
        0.000000000000000
        0.000169904243199
        0.000412103835612
        0.000000000000000
        0.000000000000000
        0.000000000000000
        0.000000000000000
        0.000000000000000
       -0.000327699882240
       -0.000707158841529
       -0.000041813680177
        0.002078703158065
        0.002843203065831
        0.001650571052429
        0.000000000000000
        0.000000000000000
        0.000000000000000
       -0.001664721024580
       -0.005038431696658
       -0.007148552004149
        0.003341386239095
        0.009145732291856
        0.005568368648920
        0.001673543980607
        0.000000000000000
       -0.000713274459375
       -0.004455153924959
       -0.018164295694284
       -0.046013667178673
       -0.018708329270850
        0.012386294529343
        0.009459544087689
        0.002962124624582
        0.000000000000000
       -0.000931598659003
       -0.006472858503672
       -0.029363306380549
       -0.088790577553658
       -0.100736421073002
       -0.016319344242008
        0.004406261910655
        0.002343442044141
        0.000454013217116
        0.000000000000000
       -0.005011530228774
       -0.020758784515880
       -0.056797997450520
       -0.086401592524816
       -0.042496642775653
       -0.005910918692691
        0.000238319630344
        0.000212337229471
        0.000000000000000
       -0.002154998777408
       -0.008672257828302
       -0.020444972720046
       -0.028298430708990
       -0.016926662382826
       -0.004471555468161
       -0.000553108790708
        0.000000000000000
        0.000000000000000
        0.000000000000000
       -0.002132025849230
       -0.004892608670023
       -0.006208119617597
       -0.004175020614438
       -0.001510670973759
       -0.000280780873323
        0.000000000000000
        0.000000000000000
        0.000000000000000
        0.000000000000000
        0.000000000000000
       -0.000889689277500
       -0.000670841473103
        0.000000000000000
        0.000000000000000
        0.000000000000000
        0.000000000000000
        0.000000000000000
        0.000000000000000
        0.000000000000000
        0.000000000000000
        0.000000000000000
        0.000000000000000
        0.000000000000000
        0.000000000000000
        0.000000000000000
        0.000000000000000
       -0.000617278900732
       -0.000812237835687
       -0.000146222331442
        0.000406432871356
        0.000000000000000
        0.000000000000000
        0.000000000000000
        0.000000000000000
       -0.001020828105742
       -0.003329803964321
       -0.005516984791798
       -0.003217193379609
        0.000138217762634
        0.000811553766398
        0.000000000000000
        0.000000000000000
        0.000000000000000
       -0.002583234147528
       -0.009221544615075
       -0.019587303687048
       -0.016743309052936
       -0.004746140393037
        0.000258172939985
        0.000456889532359
        0.000000000000000
        0.000000000000000
       -0.003424830188246
       -0.013106574950702
       -0.031661019419718
       -0.037973592209869
       -0.016132138539876
       -0.002835960100977
       -0.000026940614324
        0.000000000000000
        0.000000000000000
       -0.002321669226748
       -0.009399705713088
       -0.022348031280266
       -0.031049848906658
       -0.018630656754610
       -0.005044603395415
       -0.000678936625511
        0.000000000000000
        0.000000000000000
        0.000000000000000
       -0.003721421983437
       -0.009279750535737
       -0.012725341672070
       -0.008749163218692
       -0.003075292587205
       -0.000544774862007
        0.000000000000000
        0.000000000000000
        0.000000000000000
        0.000000000000000
       -0.002271212565745
       -0.003305548471129
       -0.002449932937352
       -0.000948324067017
        0.000000000000000
        0.000000000000000
        0.000000000000000
        0.000000000000000
        0.000000000000000
        0.000000000000000
        0.000000000000000
        0.000000000000000
        0.000000000000000
        0.000000000000000
        0.000000000000000
        0.000000000000000
        0.000000000000000
        0.000000000000000
        0.000000000000000
        0.000000000000000
        0.000000000000000
        0.000000000000000
        0.000000000000000
        0.000000000000000
        0.000000000000000
        0.000000000000000
        0.000000000000000
       -0.000385282752000
       -0.000285484444170
        0.000000000000000
        0.000000000000000
        0.000000000000000
        0.000000000000000
        0.000000000000000
        0.000000000000000
       -0.001072958380407
       -0.001893497399357
       -0.001601599283961
       -0.000610536527770
        0.000000000000000
        0.000000000000000
        0.000000000000000
        0.000000000000000
       -0.000831041410731
       -0.002706931528147
       -0.005025266903235
       -0.004977291203431
       -0.002421236243327
       -0.000583052794945
        0.000000000000000
        0.000000000000000
        0.000000000000000
       -0.001006666928082
       -0.003591327043294
       -0.007280072654197
       -0.008292798652568
       -0.004871944381492
       -0.001515193944669
       -0.000253794754289
        0.000000000000000
        0.000000000000000
        0.000000000000000
       -0.002438011736049
       -0.005613788349631
       -0.007174725832259
       -0.004857707789214
       -0.001784621406223
       -0.000349734025014
        0.000000000000000
        0.000000000000000
        0.000000000000000
        0.000000000000000
       -0.002410528003223
       -0.003504921704001
       -0.002598055535014
       -0.001010747957171
        0.000000000000000
        0.000000000000000
        0.000000000000000
        0.000000000000000
        0.000000000000000
        0.000000000000000
       -0.000974977238201
       -0.000795492683744
        0.000000000000000
        0.000000000000000
        0.000000000000000
        0.000000000000000
        0.000000000000000
        0.000000000000000
        0.000000000000000
        0.000000000000000
        0.000000000000000
        0.000000000000000
        0.000000000000000
        0.000000000000000
        0.000000000000000
        0.000000000000000
        0.000000000000000
        0.000000000000000
        0.000000000000000
        0.000000000000000
        0.000000000000000
        0.000000000000000
        0.000000000000000
        0.000000000000000
        0.000000000000000
        0.000000000000000
        0.000000000000000
        0.000000000000000
        0.000000000000000
        0.000000000000000
        0.000000000000000
        0.000000000000000
        0.000000000000000
        0.000000000000000
        0.000000000000000
        0.000000000000000
        0.000000000000000
        0.000000000000000
        0.000000000000000
        0.000000000000000
        0.000000000000000
        0.000000000000000
        0.000000000000000
        0.000000000000000
       -0.000827363020997
       -0.000854119162739
        0.000000000000000
        0.000000000000000
        0.000000000000000
        0.000000000000000
        0.000000000000000
        0.000000000000000
        0.000000000000000
       -0.001076456076629
       -0.001429076538330
       -0.000840813247597
        0.000000000000000
        0.000000000000000
        0.000000000000000
        0.000000000000000
        0.000000000000000
        0.000000000000000
        0.000000000000000
       -0.001063150161487
       -0.000807457899629
        0.000000000000000
        0.000000000000000
        0.000000000000000
        0.000000000000000
        0.000000000000000
        0.000000000000000
        0.000000000000000
        0.000000000000000
        0.000000000000000
        0.000000000000000
        0.000000000000000
        0.000000000000000
        0.000000000000000
        0.000000000000000
        0.000000000000000
        0.000000000000000
        0.000000000000000
        0.000000000000000
        0.000000000000000
        0.000000000000000
        0.000000000000000
        0.000000000000000
        0.000000000000000
        0.000000000000000
        0.000000000000000
        0.000000000000000
        0.000000000000000
        0.000000000000000
        0.000000000000000
        0.000000000000000
END_DATAGRID_3D
END_BLOCK_DATAGRID_3D
