ATOMS
         C    7.558905    7.558905    7.558905
         H    8.755769    8.755769    8.755769
         H    6.362040    6.362040    8.755769
         H    8.755769    6.362040    6.362040
         H    6.362040    8.755769    6.362040
BEGIN_BLOCK_DATAGRID_3D
units: coords = b, function = sqrt(b^-3)
BEGIN_DATAGRID_3D_function
      9      9      9
0.0 0.0 0.0
   15.117809    0.000000    0.000000
    0.000000   15.117809    0.000000
    0.000000    0.000000   15.117809
        0.000000000000000
        0.000000000000000
        0.000000000000000
        0.000000000000000
        0.000000000000000
        0.000000000000000
        0.000000000000000
        0.000000000000000
        0.000000000000000
        0.000000000000000
        0.000000000000000
        0.000000000000000
        0.000000000000000
        0.000000000000000
        0.000000000000000
        0.000000000000000
        0.000000000000000
        0.000000000000000
        0.000000000000000
        0.000000000000000
        0.000000000000000
        0.000000000000000
        0.000000000000000
        0.000000000000000
        0.000000000000000
        0.000000000000000
        0.000000000000000
        0.000000000000000
        0.000000000000000
        0.000000000000000
        0.000000000000000
       -0.000733793959938
       -0.000516145894972
        0.000000000000000
        0.000000000000000
        0.000000000000000
        0.000000000000000
        0.000000000000000
        0.000000000000000
       -0.001189912371737
       -0.001498838781467
       -0.000820950965944
        0.000000000000000
        0.000000000000000
        0.000000000000000
        0.000000000000000
        0.000000000000000
        0.000000000000000
       -0.001198480950313
       -0.001277069377743
        0.000000000000000
        0.000000000000000
        0.000000000000000
        0.000000000000000
        0.000000000000000
        0.000000000000000
        0.000000000000000
        0.000000000000000
        0.000000000000000
        0.000000000000000
        0.000000000000000
        0.000000000000000
        0.000000000000000
        0.000000000000000
        0.000000000000000
        0.000000000000000
        0.000000000000000
        0.000000000000000
        0.000000000000000
        0.000000000000000
        0.000000000000000
        0.000000000000000
        0.000000000000000
        0.000000000000000
        0.000000000000000
        0.000000000000000
        0.000000000000000
        0.000000000000000
        0.000000000000000
        0.000000000000000
        0.000000000000000
        0.000000000000000
        0.000000000000000
        0.000000000000000
        0.000000000000000
        0.000000000000000
        0.000000000000000
        0.000000000000000
        0.000000000000000
        0.000000000000000
        0.000000000000000
        0.000000000000000
        0.000000000000000
        0.000000000000000
        0.000023508229501
        0.000077455381516
        0.000000000000000
        0.000000000000000
        0.000000000000000
        0.000000000000000
        0.000000000000000
        0.000000000000000
       -0.000755019342669
       -0.000806950047575
       -0.000329871863812
       -0.000026445483132
        0.000000000000000
        0.000000000000000
        0.000000000000000
        0.000000000000000
       -0.001697144437595
       -0.003587885490519
       -0.004115655385620
       -0.002310801942961
       -0.000648741465843
       -0.000097283888796
        0.000000000000000
        0.000000000000000
       -0.001062794430976
       -0.003768870795408
       -0.007726878258806
       -0.008697622481365
       -0.005018355406166
       -0.001586931703512
       -0.000259198339474
        0.000000000000000
        0.000000000000000
       -0.001141132646519
       -0.004062072508414
       -0.008054623104611
       -0.008629578279352
       -0.004839379352864
       -0.001471397315711
        0.000000000000000
        0.000000000000000
        0.000000000000000
        0.000000000000000
       -0.002158979708719
       -0.004380942110446
       -0.004548852451345
       -0.002413522410638
        0.000000000000000
        0.000000000000000
        0.000000000000000
        0.000000000000000
        0.000000000000000
        0.000000000000000
       -0.001315871916830
       -0.001345500999951
        0.000000000000000
        0.000000000000000
        0.000000000000000
        0.000000000000000
        0.000000000000000
        0.000000000000000
        0.000000000000000
        0.000000000000000
        0.000000000000000
        0.000000000000000
        0.000000000000000
        0.000000000000000
        0.000000000000000
        0.000000000000000
        0.000000000000000
        0.000000000000000
        0.000000000000000
        0.000000000000000
        0.000000000000000
        0.000000000000000
        0.000000000000000
        0.000000000000000
        0.000000000000000
        0.000000000000000
        0.000000000000000
        0.000421619393484
        0.000876928444256
        0.000921150917743
        0.000500777978573
        0.000000000000000
        0.000000000000000
        0.000000000000000
        0.000000000000000
       -0.000637485836754
       -0.000868447202633
        0.000112162850579
        0.001341285914938
        0.001003360192121
        0.000342584991769
        0.000000000000000
        0.000000000000000
       -0.001308003246919
       -0.004980435321824
       -0.010758396921896
       -0.011663948546350
       -0.003645182199718
       -0.000110917127376
        0.000226912909809
        0.000000000000000
        0.000000000000000
       -0.003211973881231
       -0.012956274435752
       -0.032614489773566
       -0.039827322854448
       -0.017511753795134
       -0.003764516347285
       -0.000408299634473
        0.000000000000000
        0.000000000000000
       -0.003648330822187
       -0.014851651585190
       -0.036438438041846
       -0.038462295022350
       -0.017658412231757
       -0.004607353347910
       -0.000647808110889
        0.000000000000000
        0.000000000000000
       -0.001984614919140
       -0.007721129921718
       -0.016303854627503
       -0.016832953633616
       -0.008719341467101
       -0.002414431408879
        0.000000000000000
        0.000000000000000
        0.000000000000000
        0.000000000000000
       -0.002142807905944
       -0.004342568830120
       -0.004497201959960
       -0.002377430751293
        0.000000000000000
        0.000000000000000
        0.000000000000000
        0.000000000000000
        0.000000000000000
        0.000000000000000
        0.000000000000000
        0.000000000000000
        0.000000000000000
        0.000000000000000
        0.000000000000000
        0.000000000000000
        0.000000000000000
        0.000000000000000
        0.000000000000000
        0.000000000000000
        0.000731232450638
        0.000637697371461
        0.000000000000000
        0.000000000000000
        0.000000000000000
        0.000000000000000
        0.000000000000000
        0.000887169646067
        0.002503097404938
        0.004048165762730
        0.003455078630332
        0.001665005642572
        0.000485084804348
        0.000000000000000
        0.000000000000000
        0.000099672100590
        0.001163487959500
        0.005314570005911
        0.011574145446187
        0.010746516382422
        0.004728965667269
        0.001289637236670
        0.000000000000000
        0.000000000000000
       -0.001573458918031
       -0.005442701206802
       -0.009729592368679
       -0.000437779042888
        0.013865165167464
        0.006428298493310
        0.001725030679704
        0.000291487602968
       -0.000705394818246
       -0.005026916932936
       -0.024929123579639
       -0.082330684980676
       -0.105654001420318
       -0.027910315328842
       -0.001246231706789
        0.000695917599892
        0.000204495417433
       -0.000816878739918
       -0.006147715263958
       -0.031678776006230
       -0.106696221840106
       -0.109803221266630
       -0.036850126004600
       -0.006408126443540
       -0.000575991105205
        0.000000000000000
        0.000000000000000
       -0.003615733319483
       -0.014703195312480
       -0.035996993895342
       -0.037749500732616
       -0.017165397656254
       -0.004418897554896
       -0.000604629743945
        0.000000000000000
        0.000000000000000
       -0.001123269345031
       -0.003991101725385
       -0.007877763214585
       -0.008379165095774
       -0.004652547428174
       -0.001392127289422
        0.000000000000000
        0.000000000000000
        0.000000000000000
        0.000000000000000
        0.000000000000000
       -0.001163088508411
       -0.001232131851451
        0.000000000000000
        0.000000000000000
        0.000000000000000
        0.000000000000000
        0.000000000000000
        0.000000000000000
        0.000000000000000
        0.000956622945982
        0.001409625912861
        0.000934551143631
        0.000000000000000
        0.000000000000000
        0.000000000000000
        0.000000000000000
        0.000560303694021
        0.002340558868400
        0.005832648237297
        0.008179928476374
        0.006153972246348
        0.002696459175165
        0.000683002316527
        0.000000000000000
        0.000000000000000
        0.001213577290747
        0.006569919163706
        0.021926836200957
        0.037456747870216
        0.025215826987719
        0.009155628015042
        0.002191212752373
        0.000000000000000
       -0.000023885911104
        0.000368788414817
        0.006374108402346
        0.040029525404693
        0.099365335379010
        0.063649784616844
        0.018243255083526
        0.003704424104055
        0.000494971116433
       -0.000536943359011
       -0.003115832528689
       -0.014267722972153
       -0.037849443927569
       -0.000000000000001
        0.037849443927571
        0.014267722972154
        0.003115832528689
        0.000536943359011
       -0.000696484904222
       -0.004934635429234
       -0.024331312291912
       -0.079522213837142
       -0.099365335379008
       -0.024157096184391
       -0.000286051193958
        0.000861422910362
        0.000225399698893
        0.000000000000000
       -0.003132237669387
       -0.012559968046468
       -0.031303884196105
       -0.037456747870215
       -0.015838778992568
       -0.003165579132279
       -0.000272552373733
        0.000000000000000
        0.000000000000000
       -0.001033893814273
       -0.003637484092178
       -0.007384183571527
       -0.008179928476373
       -0.004602436912118
       -0.001399533951386
       -0.000209412196275
        0.000000000000000
        0.000000000000000
        0.000000000000000
        0.000000000000000
       -0.001136064931420
       -0.001409625912861
       -0.000755109158192
        0.000000000000000
        0.000000000000000
        0.000000000000000
        0.000000000000000
        0.000000000000000
        0.000000000000000
        0.000974872613975
        0.001159941638974
        0.000000000000000
        0.000000000000000
        0.000000000000000
        0.000000000000000
        0.000000000000000
        0.000679619539228
        0.002765414447227
        0.006293382595482
        0.007938454720915
        0.005422565477996
        0.002092776307208
        0.000000000000000
        0.000000000000000
        0.000000000000000
        0.001928133351901
        0.009343011146377
        0.026951273715114
        0.035568517742488
        0.021410833045516
        0.007853622835208
        0.001739726775877
        0.000000000000000
        0.000202631557938
        0.002434409862843
        0.017319237168590
        0.073440464111724
        0.104117089064424
        0.053536824236860
        0.016588151905925
        0.003594970830199
        0.000000000000000
       -0.000014975997080
        0.000461069918519
        0.006971919690072
        0.042837996548226
        0.105654001420318
        0.067403003761294
        0.019203435596357
        0.003869929414525
        0.000515875397893
        0.000000000000000
       -0.001445520806962
       -0.004737324255582
       -0.006957105863578
        0.006123911245096
        0.019390592560920
        0.007931240344330
        0.001988274721411
        0.000322759579012
        0.000000000000000
       -0.001234769132522
       -0.004598213239811
       -0.009560005395173
       -0.009393162456058
       -0.001700796202193
        0.000631218498835
        0.000397962730912
        0.000000000000000
        0.000000000000000
        0.000000000000000
       -0.001587818663853
       -0.003273115454760
       -0.003607455387870
       -0.001870698011228
       -0.000439318364414
       -0.000041434998545
        0.000000000000000
        0.000000000000000
        0.000000000000000
        0.000000000000000
        0.000000000000000
       -0.000659042238161
       -0.000449481477025
        0.000000000000000
        0.000000000000000
        0.000000000000000
        0.000000000000000
        0.000000000000000
        0.000000000000000
        0.000000000000000
        0.000000000000000
        0.000000000000000
        0.000000000000000
        0.000000000000000
        0.000000000000000
        0.000000000000000
        0.000000000000000
        0.001554567812546
        0.003509269172057
        0.004160089599309
        0.002558326559791
        0.000000000000000
        0.000000000000000
        0.000000000000000
        0.000000000000000
        0.001201709140420
        0.005314558989424
        0.012730690898708
        0.015613384328169
        0.009885557997340
        0.003507748927452
        0.000000000000000
        0.000000000000000
        0.000000000000000
        0.001960730854604
        0.009491467419086
        0.027392717861618
        0.036281312032222
        0.021903847621019
        0.008042078628222
        0.001782905142821
        0.000000000000000
        0.000000000000000
        0.001293313502590
        0.006966225552989
        0.023237441778417
        0.039827322854448
        0.026888801790284
        0.009754565230047
        0.002326960013114
        0.000000000000000
        0.000000000000000
        0.000172906214987
        0.001545710041512
        0.006512961532635
        0.013844931536479
        0.012690902379946
        0.005471101293480
        0.001460687057773
        0.000000000000000
        0.000000000000000
        0.000000000000000
       -0.000455831681819
       -0.000297769327606
        0.001107406454868
        0.002231877813858
        0.001403210740173
        0.000440320786952
        0.000000000000000
        0.000000000000000
        0.000000000000000
        0.000000000000000
       -0.000602515201982
       -0.000539816083605
       -0.000087851259679
        0.000087462114826
        0.000000000000000
        0.000000000000000
        0.000000000000000
        0.000000000000000
        0.000000000000000
        0.000000000000000
        0.000000000000000
        0.000000000000000
        0.000000000000000
        0.000000000000000
        0.000000000000000
        0.000000000000000
        0.000000000000000
        0.000000000000000
        0.000000000000000
        0.000000000000000
        0.000000000000000
        0.000000000000000
        0.000000000000000
        0.000000000000000
        0.000000000000000
        0.000000000000000
        0.000000000000000
        0.001087248962060
        0.001219797781047
        0.000000000000000
        0.000000000000000
        0.000000000000000
        0.000000000000000
        0.000000000000000
        0.000000000000000
        0.001570739615321
        0.003547642452383
        0.004211740090695
        0.002594418219136
        0.000000000000000
        0.000000000000000
        0.000000000000000
        0.000000000000000
        0.000697482840716
        0.002836385230257
        0.006470242485508
        0.008188867904492
        0.005609397402686
        0.002172046333497
        0.000000000000000
        0.000000000000000
        0.000000000000000
        0.000589204310724
        0.002471945571630
        0.006175342924577
        0.008697622481365
        0.006569890740396
        0.002883856927291
        0.000732788459726
        0.000000000000000
        0.000000000000000
        0.000000000000000
        0.000996495419809
        0.002817867440697
        0.004556365760480
        0.003895182562065
        0.001874428744001
        0.000540933694598
        0.000000000000000
        0.000000000000000
        0.000000000000000
        0.000000000000000
        0.000574123534171
        0.001144062408225
        0.001163171521875
        0.000614685576531
        0.000000000000000
        0.000000000000000
        0.000000000000000
        0.000000000000000
        0.000000000000000
        0.000000000000000
        0.000102194989403
        0.000151167573254
        0.000000000000000
        0.000000000000000
        0.000000000000000
        0.000000000000000
        0.000000000000000
        0.000000000000000
        0.000000000000000
        0.000000000000000
        0.000000000000000
        0.000000000000000
        0.000000000000000
        0.000000000000000
        0.000000000000000
        0.000000000000000
        0.000000000000000
        0.000000000000000
        0.000000000000000
        0.000000000000000
        0.000000000000000
        0.000000000000000
        0.000000000000000
        0.000000000000000
        0.000000000000000
        0.000000000000000
        0.000000000000000
        0.000000000000000
        0.000000000000000
        0.000000000000000
        0.000000000000000
        0.000000000000000
        0.000000000000000
        0.000000000000000
        0.000000000000000
        0.000000000000000
        0.000000000000000
        0.000000000000000
        0.000000000000000
        0.000000000000000
        0.000000000000000
        0.000000000000000
        0.000000000000000
        0.000000000000000
        0.001010265055878
        0.001204879165267
        0.000000000000000
        0.000000000000000
        0.000000000000000
        0.000000000000000
        0.000000000000000
        0.000000000000000
        0.000000000000000
        0.001010470386298
        0.001498838781467
        0.001000392951383
        0.000000000000000
        0.000000000000000
        0.000000000000000
        0.000000000000000
        0.000000000000000
        0.000000000000000
        0.000000000000000
        0.000805984172414
        0.000704361789407
        0.000000000000000
        0.000000000000000
        0.000000000000000
        0.000000000000000
        0.000000000000000
        0.000000000000000
        0.000000000000000
        0.000000000000000
        0.000000000000000
        0.000000000000000
        0.000000000000000
        0.000000000000000
        0.000000000000000
        0.000000000000000
        0.000000000000000
        0.000000000000000
        0.000000000000000
        0.000000000000000
        0.000000000000000
        0.000000000000000
        0.000000000000000
        0.000000000000000
        0.000000000000000
        0.000000000000000
        0.000000000000000
        0.000000000000000
        0.000000000000000
        0.000000000000000
        0.000000000000000
        0.000000000000000
END_DATAGRID_3D
END_BLOCK_DATAGRID_3D
