ATOMS
         C    7.558905    7.558905    7.558905
         H    8.755769    8.755769    8.755769
         H    6.362040    6.362040    8.755769
         H    8.755769    6.362040    6.362040
         H    6.362040    8.755769    6.362040
BEGIN_BLOCK_DATAGRID_3D
units: coords = b, function = sqrt(b^-3)
BEGIN_DATAGRID_3D_function
      9      9      9
0.0 0.0 0.0
   15.117809    0.000000    0.000000
    0.000000   15.117809    0.000000
    0.000000    0.000000   15.117809
        0.000000000000000
        0.000000000000000
        0.000000000000000
        0.000000000000000
        0.000000000000000
        0.000000000000000
        0.000000000000000
        0.000000000000000
        0.000000000000000
        0.000000000000000
        0.000000000000000
        0.000000000000000
        0.000000000000000
        0.000000000000000
        0.000000000000000
        0.000000000000000
        0.000000000000000
        0.000000000000000
        0.000000000000000
        0.000000000000000
        0.000000000000000
        0.000000000000000
        0.000000000000000
        0.000000000000000
        0.000000000000000
        0.000000000000000
        0.000000000000000
        0.000000000000000
        0.000000000000000
        0.000000000000000
        0.000000000000000
        0.001402919700722
        0.001163959109636
        0.000000000000000
        0.000000000000000
        0.000000000000000
        0.000000000000000
        0.000000000000000
        0.000000000000000
        0.001457065903770
        0.002105748486929
        0.001368036982637
        0.000000000000000
        0.000000000000000
        0.000000000000000
        0.000000000000000
        0.000000000000000
        0.000000000000000
        0.001244959907040
        0.001422183185684
        0.000000000000000
        0.000000000000000
        0.000000000000000
        0.000000000000000
        0.000000000000000
        0.000000000000000
        0.000000000000000
        0.000000000000000
        0.000000000000000
        0.000000000000000
        0.000000000000000
        0.000000000000000
        0.000000000000000
        0.000000000000000
        0.000000000000000
        0.000000000000000
        0.000000000000000
        0.000000000000000
        0.000000000000000
        0.000000000000000
        0.000000000000000
        0.000000000000000
        0.000000000000000
        0.000000000000000
        0.000000000000000
        0.000000000000000
        0.000000000000000
        0.000000000000000
        0.000000000000000
        0.000000000000000
        0.000000000000000
        0.000000000000000
        0.000000000000000
        0.000000000000000
        0.000000000000000
        0.000000000000000
        0.000000000000000
        0.000000000000000
        0.000000000000000
        0.000000000000000
        0.000000000000000
        0.000000000000000
        0.000000000000000
        0.000000000000000
        0.000920740036509
        0.000832574465986
        0.000000000000000
        0.000000000000000
        0.000000000000000
        0.000000000000000
        0.000000000000000
        0.000000000000000
        0.002313205700442
        0.003742500579712
        0.003151427895363
        0.001408593572306
        0.000000000000000
        0.000000000000000
        0.000000000000000
        0.000000000000000
        0.002425045716763
        0.006170232387936
        0.008919278445100
        0.006940335079859
        0.003023807837787
        0.000762638970844
        0.000000000000000
        0.000000000000000
        0.001049695591371
        0.004094111679160
        0.009347968143291
        0.012219408332840
        0.008557992104681
        0.003430330321866
        0.000807593112946
        0.000000000000000
        0.000000000000000
        0.000977233649282
        0.003594478315337
        0.007622186976162
        0.008986681802872
        0.005669349407228
        0.002026491056132
        0.000000000000000
        0.000000000000000
        0.000000000000000
        0.000000000000000
        0.001661747360099
        0.003466858257761
        0.003781941421315
        0.002138331072453
        0.000000000000000
        0.000000000000000
        0.000000000000000
        0.000000000000000
        0.000000000000000
        0.000000000000000
        0.000907298154140
        0.000936548667808
        0.000000000000000
        0.000000000000000
        0.000000000000000
        0.000000000000000
        0.000000000000000
        0.000000000000000
        0.000000000000000
        0.000000000000000
        0.000000000000000
        0.000000000000000
        0.000000000000000
        0.000000000000000
        0.000000000000000
        0.000000000000000
        0.000000000000000
        0.000000000000000
        0.000000000000000
        0.000000000000000
        0.000000000000000
        0.000000000000000
        0.000000000000000
        0.000000000000000
        0.000000000000000
        0.000000000000000
        0.000000000000000
        0.001485219393128
        0.002557584793255
        0.002271104586903
        0.001037593808280
        0.000000000000000
        0.000000000000000
        0.000000000000000
        0.000000000000000
        0.002499437199650
        0.007239160348590
        0.011745756770054
        0.009840043113259
        0.004201103094503
        0.000974280315406
        0.000000000000000
        0.000000000000000
        0.001690543696274
        0.007727296101226
        0.021342433704548
        0.035138330739828
        0.026210623637455
        0.009258832092582
        0.001993251701920
        0.000000000000000
        0.000000000000000
        0.003042979514809
        0.013297115759361
        0.037625379998461
        0.055954158011086
        0.032797868379074
        0.010194198105760
        0.002043201045061
        0.000000000000000
        0.000000000000000
        0.002813548433967
        0.011762311312910
        0.030103523766144
        0.035284917637707
        0.018580844588616
        0.005742741817852
        0.001057203566847
        0.000000000000000
        0.000000000000000
        0.001332635545241
        0.005236787972843
        0.011181100292232
        0.011745557095068
        0.006230877570488
        0.001788251385318
        0.000000000000000
        0.000000000000000
        0.000000000000000
        0.000000000000000
        0.001269322052367
        0.002535695548984
        0.002528595766615
        0.001262527869993
        0.000000000000000
        0.000000000000000
        0.000000000000000
        0.000000000000000
        0.000000000000000
        0.000000000000000
        0.000000000000000
        0.000000000000000
        0.000000000000000
        0.000000000000000
        0.000000000000000
        0.000000000000000
        0.000000000000000
        0.000000000000000
        0.000000000000000
        0.000000000000000
        0.000371998441826
        0.000352013076715
        0.000000000000000
        0.000000000000000
        0.000000000000000
        0.000000000000000
        0.000000000000000
        0.000606497195551
        0.001884099255039
        0.003174526646406
        0.002882989282746
        0.001395665871779
        0.000352836083385
        0.000000000000000
        0.000000000000000
        0.000699981482377
        0.003403898736651
        0.010032097183800
        0.018786000697669
        0.016083403408229
        0.005853094362230
        0.001245433044372
        0.000000000000000
        0.000000000000000
        0.002368027667418
        0.011309097460332
        0.038147584917382
        0.078076790946275
        0.058054098815523
        0.014355128223208
        0.002190577159826
        0.000213449270605
        0.000542541423190
        0.004251830965575
        0.023119319512250
        0.087798348788964
        0.148435598681401
        0.067081452794737
        0.013654908174891
        0.001832861509726
        0.000161182388715
        0.000524687124218
        0.004022938221113
        0.021119723364392
        0.072365995219007
        0.076803010637426
        0.027293132863914
        0.005340326487869
        0.000651760122927
        0.000000000000000
        0.000000000000000
        0.002022542629458
        0.008159889407344
        0.019391448179371
        0.017988226989472
        0.006617326764401
        0.001169664674005
        0.000009435564524
        0.000000000000000
        0.000000000000000
        0.000543764305595
        0.001872309802051
        0.003330526098192
        0.002910165828895
        0.001135688535307
        0.000102919851350
        0.000000000000000
        0.000000000000000
        0.000000000000000
        0.000000000000000
        0.000000000000000
        0.000386123318108
        0.000331725370079
        0.000000000000000
        0.000000000000000
        0.000000000000000
        0.000000000000000
        0.000000000000000
        0.000000000000000
        0.000000000000000
       -0.000053425946491
        0.000059097883878
        0.000132712529557
        0.000000000000000
        0.000000000000000
        0.000000000000000
        0.000000000000000
       -0.000092458211189
       -0.000205008491022
       -0.000193669872754
        0.000342938000047
        0.000696201094323
        0.000416182143707
        0.000144583065062
        0.000000000000000
        0.000000000000000
       -0.000071224868917
       -0.000443204079262
       -0.000754638350242
        0.001570354842063
        0.002731068574811
        0.001102488389593
        0.000213968653360
        0.000000000000000
        0.000062970831825
        0.000454944748224
        0.001091631205706
        0.001694929136357
        0.004165848784244
        0.002651776363286
       -0.000059561587213
       -0.000284177701937
       -0.000043220805468
        0.000290176188336
        0.001683857951578
        0.007710590506874
        0.020454710762481
        0.000000000000001
       -0.020454710762484
       -0.007710590506875
       -0.001683857951578
       -0.000290176188336
        0.000326333775217
        0.002012530985699
        0.008612827760425
        0.019647805170558
       -0.004165848784247
       -0.023994510670206
       -0.009644897378920
       -0.002183298031987
       -0.000346083801574
        0.000000000000000
        0.001108107437164
        0.003680352275585
        0.005822197598401
       -0.001570354842064
       -0.007798627822973
       -0.004339636585917
       -0.001250851221607
        0.000000000000000
        0.000000000000000
        0.000348396163989
        0.000905893946816
        0.001032152189439
       -0.000342938000047
       -0.001534683411009
       -0.001117067599502
       -0.000400521017863
        0.000000000000000
        0.000000000000000
        0.000000000000000
        0.000000000000000
        0.000150400440191
       -0.000059097883878
       -0.000229687023257
        0.000000000000000
        0.000000000000000
        0.000000000000000
        0.000000000000000
        0.000000000000000
        0.000000000000000
       -0.000284406704348
       -0.000292711858760
        0.000000000000000
        0.000000000000000
        0.000000000000000
        0.000000000000000
        0.000000000000000
       -0.000304006514847
       -0.001209923505597
       -0.002474291737538
       -0.002671995424836
       -0.001551821096258
       -0.000481564704841
        0.000000000000000
        0.000000000000000
        0.000000000000000
       -0.001110530078506
       -0.005263135447542
       -0.014502945454874
       -0.016809570473099
       -0.008911649381400
       -0.003025861786032
       -0.000622865886812
        0.000000000000000
       -0.000192733454249
       -0.002016194695474
       -0.013359525627401
       -0.054393855619140
       -0.073730085446630
       -0.036310989538436
       -0.010841830961399
       -0.002283277247661
        0.000000000000000
       -0.000153236816148
       -0.001784355231651
       -0.013414860546118
       -0.066455614482048
       -0.148435598681401
       -0.088424187101656
       -0.023359367141024
       -0.004300337243650
       -0.000550486995757
        0.000000000000000
       -0.000736510542684
       -0.005807592986803
       -0.029129728242861
       -0.081149716137074
       -0.076026238415393
       -0.022115325960200
       -0.004197320685465
       -0.000545402940574
        0.000000000000000
       -0.000086551160090
       -0.001547701624625
       -0.007737774566802
       -0.019964657214043
       -0.020971906132727
       -0.008749848322033
       -0.002157445595324
        0.000000000000000
        0.000000000000000
        0.000000000000000
       -0.000227852342061
       -0.001467966694088
       -0.003412697050465
       -0.003739223643401
       -0.002058052168234
       -0.000592593874133
        0.000000000000000
        0.000000000000000
        0.000000000000000
        0.000000000000000
        0.000000000000000
       -0.000411011953145
       -0.000453729690475
        0.000000000000000
        0.000000000000000
        0.000000000000000
        0.000000000000000
        0.000000000000000
        0.000000000000000
        0.000000000000000
        0.000000000000000
        0.000000000000000
        0.000000000000000
        0.000000000000000
        0.000000000000000
        0.000000000000000
        0.000000000000000
       -0.000951424613329
       -0.002085362220720
       -0.002346411140569
       -0.001360286902417
        0.000000000000000
        0.000000000000000
        0.000000000000000
        0.000000000000000
       -0.000909536664161
       -0.003936228445982
       -0.009250084198571
       -0.011086472459722
       -0.006861123397970
       -0.002379103112425
        0.000000000000000
        0.000000000000000
        0.000000000000000
       -0.001901535883015
       -0.008865557353108
       -0.025215021041648
       -0.034106261121334
       -0.020875167205614
       -0.007598938929879
       -0.001670633889135
        0.000000000000000
        0.000000000000000
       -0.002006096946561
       -0.010059967563038
       -0.032557820750301
       -0.055954158011086
       -0.037865427627235
       -0.013431346302084
       -0.003080083613309
        0.000000000000000
        0.000000000000000
       -0.001077113373986
       -0.005871098989199
       -0.019048111087550
       -0.036316987256202
       -0.031099126361952
       -0.012155586052384
       -0.002905264252872
        0.000000000000000
        0.000000000000000
        0.000000000000000
       -0.001908585472542
       -0.006608914521108
       -0.012404841405399
       -0.011771059206921
       -0.005501662621364
       -0.001397379196486
        0.000000000000000
        0.000000000000000
        0.000000000000000
        0.000000000000000
       -0.001387460360704
       -0.002739769419301
       -0.002721437915167
       -0.001355491247318
        0.000000000000000
        0.000000000000000
        0.000000000000000
        0.000000000000000
        0.000000000000000
        0.000000000000000
        0.000000000000000
        0.000000000000000
        0.000000000000000
        0.000000000000000
        0.000000000000000
        0.000000000000000
        0.000000000000000
        0.000000000000000
        0.000000000000000
        0.000000000000000
        0.000000000000000
        0.000000000000000
        0.000000000000000
        0.000000000000000
        0.000000000000000
        0.000000000000000
        0.000000000000000
       -0.000783744897448
       -0.000868615182635
        0.000000000000000
        0.000000000000000
        0.000000000000000
        0.000000000000000
        0.000000000000000
        0.000000000000000
       -0.001343849921060
       -0.003016524929497
       -0.003599756795269
       -0.002236090104877
        0.000000000000000
        0.000000000000000
        0.000000000000000
        0.000000000000000
       -0.000737475858534
       -0.002932092018882
       -0.006765952615507
       -0.008748511398812
       -0.006085481968179
       -0.002405135909623
        0.000000000000000
        0.000000000000000
        0.000000000000000
       -0.000793757638570
       -0.003393226223366
       -0.008509485826605
       -0.012219408332840
       -0.009396474421366
       -0.004131215777660
       -0.001063531065747
        0.000000000000000
        0.000000000000000
        0.000000000000000
       -0.002046400863272
       -0.005754099826985
       -0.009157448849159
       -0.007796569440513
       -0.003686194134242
       -0.001002396761592
        0.000000000000000
        0.000000000000000
        0.000000000000000
        0.000000000000000
       -0.002215446668019
       -0.003924685205757
       -0.003601761223627
       -0.001726491011344
        0.000000000000000
        0.000000000000000
        0.000000000000000
        0.000000000000000
        0.000000000000000
        0.000000000000000
       -0.000988673521682
       -0.000956127722678
        0.000000000000000
        0.000000000000000
        0.000000000000000
        0.000000000000000
        0.000000000000000
        0.000000000000000
        0.000000000000000
        0.000000000000000
        0.000000000000000
        0.000000000000000
        0.000000000000000
        0.000000000000000
        0.000000000000000
        0.000000000000000
        0.000000000000000
        0.000000000000000
        0.000000000000000
        0.000000000000000
        0.000000000000000
        0.000000000000000
        0.000000000000000
        0.000000000000000
        0.000000000000000
        0.000000000000000
        0.000000000000000
        0.000000000000000
        0.000000000000000
        0.000000000000000
        0.000000000000000
        0.000000000000000
        0.000000000000000
        0.000000000000000
        0.000000000000000
        0.000000000000000
        0.000000000000000
        0.000000000000000
        0.000000000000000
        0.000000000000000
        0.000000000000000
        0.000000000000000
        0.000000000000000
        0.000000000000000
       -0.001143243293280
       -0.001383169674365
        0.000000000000000
        0.000000000000000
        0.000000000000000
        0.000000000000000
        0.000000000000000
        0.000000000000000
        0.000000000000000
       -0.001360091410070
       -0.002105748486929
       -0.001465011476337
        0.000000000000000
        0.000000000000000
        0.000000000000000
        0.000000000000000
        0.000000000000000
        0.000000000000000
        0.000000000000000
       -0.001441933212041
       -0.001265675723396
        0.000000000000000
        0.000000000000000
        0.000000000000000
        0.000000000000000
        0.000000000000000
        0.000000000000000
        0.000000000000000
        0.000000000000000
        0.000000000000000
        0.000000000000000
        0.000000000000000
        0.000000000000000
        0.000000000000000
        0.000000000000000
        0.000000000000000
        0.000000000000000
        0.000000000000000
        0.000000000000000
        0.000000000000000
        0.000000000000000
        0.000000000000000
        0.000000000000000
        0.000000000000000
        0.000000000000000
        0.000000000000000
        0.000000000000000
        0.000000000000000
        0.000000000000000
        0.000000000000000
        0.000000000000000
END_DATAGRID_3D
END_BLOCK_DATAGRID_3D
