ATOMS
         C    7.558905    7.558905    7.558905
         H    8.755769    8.755769    8.755769
         H    6.362040    6.362040    8.755769
         H    8.755769    6.362040    6.362040
         H    6.362040    8.755769    6.362040
BEGIN_BLOCK_DATAGRID_3D
units: coords = b, function = sqrt(b^-3)
BEGIN_DATAGRID_3D_function
      9      9      9
0.0 0.0 0.0
   15.117809    0.000000    0.000000
    0.000000   15.117809    0.000000
    0.000000    0.000000   15.117809
        0.000000000000000
        0.000000000000000
        0.000000000000000
        0.000000000000000
        0.000000000000000
        0.000000000000000
        0.000000000000000
        0.000000000000000
        0.000000000000000
        0.000000000000000
        0.000000000000000
        0.000000000000000
        0.000000000000000
        0.000000000000000
        0.000000000000000
        0.000000000000000
        0.000000000000000
        0.000000000000000
        0.000000000000000
        0.000000000000000
        0.000000000000000
        0.000000000000000
        0.000000000000000
        0.000000000000000
        0.000000000000000
        0.000000000000000
        0.000000000000000
        0.000000000000000
        0.000000000000000
        0.000000000000000
        0.000000000000000
       -0.000449419467166
       -0.000579087139620
        0.000000000000000
        0.000000000000000
        0.000000000000000
        0.000000000000000
        0.000000000000000
        0.000000000000000
        0.000239803017052
       -0.000111123193731
       -0.000388887514705
        0.000000000000000
        0.000000000000000
        0.000000000000000
        0.000000000000000
        0.000000000000000
        0.000000000000000
        0.000451965227276
        0.000300334969513
        0.000000000000000
        0.000000000000000
        0.000000000000000
        0.000000000000000
        0.000000000000000
        0.000000000000000
        0.000000000000000
        0.000000000000000
        0.000000000000000
        0.000000000000000
        0.000000000000000
        0.000000000000000
        0.000000000000000
        0.000000000000000
        0.000000000000000
        0.000000000000000
        0.000000000000000
        0.000000000000000
        0.000000000000000
        0.000000000000000
        0.000000000000000
        0.000000000000000
        0.000000000000000
        0.000000000000000
        0.000000000000000
        0.000000000000000
        0.000000000000000
        0.000000000000000
        0.000000000000000
        0.000000000000000
        0.000000000000000
        0.000000000000000
        0.000000000000000
        0.000000000000000
        0.000000000000000
        0.000000000000000
        0.000000000000000
        0.000000000000000
        0.000000000000000
        0.000000000000000
        0.000000000000000
        0.000000000000000
        0.000000000000000
        0.000000000000000
       -0.000967909929381
       -0.001027264533903
        0.000000000000000
        0.000000000000000
        0.000000000000000
        0.000000000000000
        0.000000000000000
        0.000000000000000
       -0.001078025752101
       -0.002707206004933
       -0.003105133290711
       -0.001692199702855
        0.000000000000000
        0.000000000000000
        0.000000000000000
        0.000000000000000
        0.000345576449802
       -0.000746986282212
       -0.003514308443037
       -0.004723859829414
       -0.002883674308094
       -0.000905905525787
        0.000000000000000
        0.000000000000000
        0.000673554529311
        0.001768422234920
        0.001942446825400
       -0.000644834693166
       -0.002887368548926
       -0.002165497209159
       -0.000771566164502
        0.000000000000000
        0.000000000000000
        0.000814090096055
        0.002534418402686
        0.003955375858183
        0.002569386719510
        0.000122195548804
       -0.000580490061892
        0.000000000000000
        0.000000000000000
        0.000000000000000
        0.000000000000000
        0.001530173662057
        0.002755877385303
        0.002310131030694
        0.000843112140011
        0.000000000000000
        0.000000000000000
        0.000000000000000
        0.000000000000000
        0.000000000000000
        0.000000000000000
        0.000935449104171
        0.000869898294190
        0.000000000000000
        0.000000000000000
        0.000000000000000
        0.000000000000000
        0.000000000000000
        0.000000000000000
        0.000000000000000
        0.000000000000000
        0.000000000000000
        0.000000000000000
        0.000000000000000
        0.000000000000000
        0.000000000000000
        0.000000000000000
        0.000000000000000
        0.000000000000000
        0.000000000000000
        0.000000000000000
        0.000000000000000
        0.000000000000000
        0.000000000000000
        0.000000000000000
        0.000000000000000
        0.000000000000000
        0.000000000000000
       -0.001750646857009
       -0.003669781543283
       -0.003820270764824
       -0.001993584241458
        0.000000000000000
        0.000000000000000
        0.000000000000000
        0.000000000000000
       -0.000730193644874
       -0.004760502544614
       -0.011839602768222
       -0.013293140049711
       -0.006840598176242
       -0.001883716388519
        0.000000000000000
        0.000000000000000
        0.000862909003232
        0.001452936572649
       -0.003449494356256
       -0.019717587089593
       -0.026262086702765
       -0.012284565035951
       -0.003338112878404
        0.000000000000000
        0.000000000000000
        0.002508767218880
        0.007907515890953
        0.011939854650151
       -0.002952776544464
       -0.015656184649307
       -0.009147184273878
       -0.002777171841377
        0.000000000000000
        0.000000000000000
        0.003084451538484
        0.011175250886800
        0.023290313031506
        0.016001257090436
        0.001342689001437
       -0.002163768679400
       -0.001007911340093
        0.000000000000000
        0.000000000000000
        0.001761977320584
        0.006342547908605
        0.012183825900559
        0.010599934385297
        0.004049670437864
        0.000503926523114
        0.000000000000000
        0.000000000000000
        0.000000000000000
        0.000000000000000
        0.001871845173523
        0.003566609424905
        0.003401376920786
        0.001605644520149
        0.000000000000000
        0.000000000000000
        0.000000000000000
        0.000000000000000
        0.000000000000000
        0.000000000000000
        0.000000000000000
        0.000000000000000
        0.000000000000000
        0.000000000000000
        0.000000000000000
        0.000000000000000
        0.000000000000000
        0.000000000000000
        0.000000000000000
        0.000000000000000
       -0.001286896355499
       -0.001238677803094
        0.000000000000000
        0.000000000000000
        0.000000000000000
        0.000000000000000
        0.000000000000000
       -0.001131735559902
       -0.004228859808580
       -0.008181102166708
       -0.008019876187342
       -0.004206308074437
       -0.001238812082964
        0.000000000000000
        0.000000000000000
        0.000058218098436
       -0.002059208841626
       -0.012637534037907
       -0.033001529352424
       -0.034489012679747
       -0.015051242522015
       -0.003945609170634
        0.000000000000000
        0.000000000000000
        0.001931024426897
        0.003617295542012
       -0.011144558494152
       -0.075499156760792
       -0.094528687715496
       -0.031489938150016
       -0.006818333990865
       -0.000998228142503
        0.000883930972478
        0.005531814295112
        0.022156922952504
        0.048245738904692
       -0.007833147164202
       -0.056418955365869
       -0.024097548650666
       -0.005852911740950
       -0.000921067429167
        0.000959275687302
        0.006490438386183
        0.029617882284830
        0.087646243080808
        0.067325940299614
        0.007691163368821
       -0.004495908146697
       -0.002090382710062
        0.000000000000000
        0.000000000000000
        0.003773153677413
        0.014311758428902
        0.032616956814561
        0.031060903654262
        0.011758921433222
        0.001817855718934
       -0.000095654994831
        0.000000000000000
        0.000000000000000
        0.001191497268615
        0.004033852581216
        0.007691980582660
        0.007860004720871
        0.004069501525415
        0.001094298663507
        0.000000000000000
        0.000000000000000
        0.000000000000000
        0.000000000000000
        0.000000000000000
        0.001199725347893
        0.001249759898810
        0.000000000000000
        0.000000000000000
        0.000000000000000
        0.000000000000000
        0.000000000000000
        0.000000000000000
        0.000000000000000
       -0.000987256764374
       -0.001773735700514
       -0.001392412924740
        0.000000000000000
        0.000000000000000
        0.000000000000000
        0.000000000000000
       -0.000254282979433
       -0.001724001412012
       -0.005808776894473
       -0.010292777572273
       -0.009273955512056
       -0.004614063882352
       -0.001310167524251
        0.000000000000000
        0.000000000000000
       -0.000021080889702
       -0.003254539604413
       -0.019238451222844
       -0.047131881263361
       -0.040081182897154
       -0.016532905246279
       -0.004263162976219
        0.000000000000000
        0.000494348079385
        0.002447384298910
        0.004262559342341
       -0.021701042523321
       -0.125031798546974
       -0.108758903221724
       -0.035238604635682
       -0.007572704980407
       -0.001087115950868
        0.001167640685699
        0.006775680197873
        0.031026664311189
        0.082307761493002
        0.000000000000000
       -0.082307761493001
       -0.031026664311189
       -0.006775680197873
       -0.001167640685699
        0.001072175696806
        0.007481497441625
        0.034787237219344
        0.107582124164635
        0.125031798546974
        0.022877821580409
       -0.003811191926003
       -0.002356176760128
       -0.000479407825323
        0.000000000000000
        0.004193395234038
        0.016280508280011
        0.039629815480816
        0.047131881263361
        0.019689818639182
        0.003506936570680
        0.000090848631884
        0.000000000000000
        0.000000000000000
        0.001284152344036
        0.004544296140170
        0.009182747973273
        0.010292777572273
        0.005899984433256
        0.001793769154194
        0.000280298159648
        0.000000000000000
        0.000000000000000
        0.000000000000000
        0.000000000000000
        0.001377472670678
        0.001773735700514
        0.001002197018436
        0.000000000000000
        0.000000000000000
        0.000000000000000
        0.000000000000000
        0.000000000000000
        0.000000000000000
       -0.000790427612888
       -0.001092773333615
        0.000000000000000
        0.000000000000000
        0.000000000000000
        0.000000000000000
        0.000000000000000
       -0.000226735298321
       -0.001368474716043
       -0.004246577009996
       -0.006901630239821
       -0.005743978372042
       -0.002617928630881
        0.000000000000000
        0.000000000000000
        0.000000000000000
       -0.000103304106132
       -0.002655502967952
       -0.012946098547340
       -0.026318104767574
       -0.020991051916057
       -0.009287011893018
       -0.002372728804174
        0.000000000000000
        0.000376473510612
        0.001584501875931
        0.001608396682966
       -0.015328105861383
       -0.054960788984254
       -0.043978139262217
       -0.017641609382541
       -0.004474683104540
        0.000000000000000
        0.000682592803713
        0.004397067445423
        0.016892873609181
        0.037635342736622
        0.007833147164201
       -0.029462126275445
       -0.014952247911018
       -0.004075969999586
       -0.000645456347024
        0.000000000000000
        0.004634041387705
        0.018520221987226
        0.047431534387547
        0.063134005445430
        0.022210550496070
        0.000263659182220
       -0.001256606271250
       -0.000337521055411
        0.000000000000000
        0.002410165700569
        0.009528365015711
        0.021869664520742
        0.028258730465736
        0.014818154412526
        0.003394987061065
        0.000275759599353
        0.000000000000000
        0.000000000000000
        0.000000000000000
        0.002655365527276
        0.005903336655207
        0.007222727685658
        0.004574472614678
        0.001540930209264
        0.000274050112670
        0.000000000000000
        0.000000000000000
        0.000000000000000
        0.000000000000000
        0.000000000000000
        0.001129909790305
        0.000829380068089
        0.000000000000000
        0.000000000000000
        0.000000000000000
        0.000000000000000
        0.000000000000000
        0.000000000000000
        0.000000000000000
        0.000000000000000
        0.000000000000000
        0.000000000000000
        0.000000000000000
        0.000000000000000
        0.000000000000000
        0.000000000000000
       -0.000592656878200
       -0.001754512025655
       -0.002668283751081
       -0.001999017333774
        0.000000000000000
        0.000000000000000
        0.000000000000000
        0.000000000000000
       -0.000059468681070
       -0.001109223194933
       -0.004413605440257
       -0.007947842082469
       -0.006585718190030
       -0.002881456256835
        0.000000000000000
        0.000000000000000
        0.000000000000000
        0.000585398032797
        0.000481004574150
       -0.003619454764285
       -0.011258458203748
       -0.010574819484272
       -0.005305387494684
       -0.001460472458912
        0.000000000000000
        0.000000000000000
        0.001663547125455
        0.005118452784646
        0.008451509607821
        0.002952776544463
       -0.004735179608665
       -0.003878784401720
       -0.001395142502959
        0.000000000000000
        0.000000000000000
        0.001605474795773
        0.006016219601435
        0.012681624839091
        0.014974788202904
        0.006591228435544
        0.000628309575001
       -0.000331736692877
        0.000000000000000
        0.000000000000000
        0.000000000000000
        0.003107723378595
        0.007296550296780
        0.009187510465395
        0.005522919589408
        0.001607273462571
        0.000181207749005
        0.000000000000000
        0.000000000000000
        0.000000000000000
        0.000000000000000
        0.002144019670634
        0.002936688373578
        0.002008173365575
        0.000714395946135
        0.000000000000000
        0.000000000000000
        0.000000000000000
        0.000000000000000
        0.000000000000000
        0.000000000000000
        0.000000000000000
        0.000000000000000
        0.000000000000000
        0.000000000000000
        0.000000000000000
        0.000000000000000
        0.000000000000000
        0.000000000000000
        0.000000000000000
        0.000000000000000
        0.000000000000000
        0.000000000000000
        0.000000000000000
        0.000000000000000
        0.000000000000000
        0.000000000000000
        0.000000000000000
       -0.000438282847382
       -0.000596540574302
        0.000000000000000
        0.000000000000000
        0.000000000000000
        0.000000000000000
        0.000000000000000
        0.000000000000000
       -0.000250985366734
       -0.000943779986054
       -0.001577037860989
       -0.001236484953636
        0.000000000000000
        0.000000000000000
        0.000000000000000
        0.000000000000000
        0.000150671874238
        0.000130959462487
       -0.000509972285519
       -0.001611012238460
       -0.001796672395431
       -0.000943139905482
        0.000000000000000
        0.000000000000000
        0.000000000000000
        0.000356314835292
        0.001051872493238
        0.001431524253400
        0.000644834693166
       -0.000486602529873
       -0.000654797518999
       -0.000258303200101
        0.000000000000000
        0.000000000000000
        0.000000000000000
        0.001178053517572
        0.002421463128839
        0.002555933961987
        0.001278456256750
        0.000218296442921
       -0.000058856444506
        0.000000000000000
        0.000000000000000
        0.000000000000000
        0.000000000000000
        0.001471398565726
        0.001974112835228
        0.001293035891462
        0.000413011407532
        0.000000000000000
        0.000000000000000
        0.000000000000000
        0.000000000000000
        0.000000000000000
        0.000000000000000
        0.000694552209493
        0.000530098277114
        0.000000000000000
        0.000000000000000
        0.000000000000000
        0.000000000000000
        0.000000000000000
        0.000000000000000
        0.000000000000000
        0.000000000000000
        0.000000000000000
        0.000000000000000
        0.000000000000000
        0.000000000000000
        0.000000000000000
        0.000000000000000
        0.000000000000000
        0.000000000000000
        0.000000000000000
        0.000000000000000
        0.000000000000000
        0.000000000000000
        0.000000000000000
        0.000000000000000
        0.000000000000000
        0.000000000000000
        0.000000000000000
        0.000000000000000
        0.000000000000000
        0.000000000000000
        0.000000000000000
        0.000000000000000
        0.000000000000000
        0.000000000000000
        0.000000000000000
        0.000000000000000
        0.000000000000000
        0.000000000000000
        0.000000000000000
        0.000000000000000
        0.000000000000000
        0.000000000000000
        0.000000000000000
        0.000000000000000
       -0.000042667492271
       -0.000143348404318
        0.000000000000000
        0.000000000000000
        0.000000000000000
        0.000000000000000
        0.000000000000000
        0.000000000000000
        0.000000000000000
        0.000150412889251
        0.000111123193731
       -0.000001328391598
        0.000000000000000
        0.000000000000000
        0.000000000000000
        0.000000000000000
        0.000000000000000
        0.000000000000000
        0.000000000000000
        0.000292432901971
        0.000169789404615
        0.000000000000000
        0.000000000000000
        0.000000000000000
        0.000000000000000
        0.000000000000000
        0.000000000000000
        0.000000000000000
        0.000000000000000
        0.000000000000000
        0.000000000000000
        0.000000000000000
        0.000000000000000
        0.000000000000000
        0.000000000000000
        0.000000000000000
        0.000000000000000
        0.000000000000000
        0.000000000000000
        0.000000000000000
        0.000000000000000
        0.000000000000000
        0.000000000000000
        0.000000000000000
        0.000000000000000
        0.000000000000000
        0.000000000000000
        0.000000000000000
        0.000000000000000
        0.000000000000000
        0.000000000000000
END_DATAGRID_3D
END_BLOCK_DATAGRID_3D
