ATOMS
         C    7.558905    7.558905    7.558905
         H    8.755769    8.755769    8.755769
         H    6.362040    6.362040    8.755769
         H    8.755769    6.362040    6.362040
         H    6.362040    8.755769    6.362040
BEGIN_BLOCK_DATAGRID_3D
units: coords = b, function = sqrt(b^-3)
BEGIN_DATAGRID_3D_function
      9      9      9
0.0 0.0 0.0
   15.117809    0.000000    0.000000
    0.000000   15.117809    0.000000
    0.000000    0.000000   15.117809
        0.000000000000000
        0.000000000000000
        0.000000000000000
        0.000000000000000
        0.000000000000000
        0.000000000000000
        0.000000000000000
        0.000000000000000
        0.000000000000000
        0.000000000000000
        0.000000000000000
        0.000000000000000
        0.000000000000000
        0.000000000000000
        0.000000000000000
        0.000000000000000
        0.000000000000000
        0.000000000000000
        0.000000000000000
        0.000000000000000
        0.000000000000000
        0.000000000000000
        0.000000000000000
        0.000000000000000
        0.000000000000000
        0.000000000000000
        0.000000000000000
        0.000000000000000
        0.000000000000000
        0.000000000000000
        0.000000000000000
       -0.000106259165219
       -0.000259000625787
        0.000000000000000
        0.000000000000000
        0.000000000000000
        0.000000000000000
        0.000000000000000
        0.000000000000000
        0.000030100156463
       -0.000274493016251
       -0.000398363991068
        0.000000000000000
        0.000000000000000
        0.000000000000000
        0.000000000000000
        0.000000000000000
        0.000000000000000
       -0.000055011921721
       -0.000262004669385
        0.000000000000000
        0.000000000000000
        0.000000000000000
        0.000000000000000
        0.000000000000000
        0.000000000000000
        0.000000000000000
        0.000000000000000
        0.000000000000000
        0.000000000000000
        0.000000000000000
        0.000000000000000
        0.000000000000000
        0.000000000000000
        0.000000000000000
        0.000000000000000
        0.000000000000000
        0.000000000000000
        0.000000000000000
        0.000000000000000
        0.000000000000000
        0.000000000000000
        0.000000000000000
        0.000000000000000
        0.000000000000000
        0.000000000000000
        0.000000000000000
        0.000000000000000
        0.000000000000000
        0.000000000000000
        0.000000000000000
        0.000000000000000
        0.000000000000000
        0.000000000000000
        0.000000000000000
        0.000000000000000
        0.000000000000000
        0.000000000000000
        0.000000000000000
        0.000000000000000
        0.000000000000000
        0.000000000000000
        0.000000000000000
        0.000000000000000
        0.000190310699023
       -0.000002734473310
        0.000000000000000
        0.000000000000000
        0.000000000000000
        0.000000000000000
        0.000000000000000
        0.000000000000000
        0.000769497161526
        0.000373881488094
       -0.000454899840163
       -0.000518881274919
        0.000000000000000
        0.000000000000000
        0.000000000000000
        0.000000000000000
        0.001051149944253
        0.001325505899742
       -0.000194164134411
       -0.001807714778758
       -0.001523579023980
       -0.000588368183937
        0.000000000000000
        0.000000000000000
        0.000515066471330
        0.001259362801987
        0.000885428397797
       -0.001592850366939
       -0.003219544303780
       -0.002240204907913
       -0.000757171728279
        0.000000000000000
        0.000000000000000
        0.000361568598728
        0.000660858077077
       -0.000090570143774
       -0.002139951771571
       -0.002868844308047
       -0.001631426156407
        0.000000000000000
        0.000000000000000
        0.000000000000000
        0.000000000000000
        0.000118649647692
       -0.000407821106741
       -0.001354723594020
       -0.001349773373681
        0.000000000000000
        0.000000000000000
        0.000000000000000
        0.000000000000000
        0.000000000000000
        0.000000000000000
       -0.000224065111899
       -0.000432415955972
        0.000000000000000
        0.000000000000000
        0.000000000000000
        0.000000000000000
        0.000000000000000
        0.000000000000000
        0.000000000000000
        0.000000000000000
        0.000000000000000
        0.000000000000000
        0.000000000000000
        0.000000000000000
        0.000000000000000
        0.000000000000000
        0.000000000000000
        0.000000000000000
        0.000000000000000
        0.000000000000000
        0.000000000000000
        0.000000000000000
        0.000000000000000
        0.000000000000000
        0.000000000000000
        0.000000000000000
        0.000000000000000
        0.001354453746966
        0.001211001965034
        0.000167031841618
       -0.000256776994635
        0.000000000000000
        0.000000000000000
        0.000000000000000
        0.000000000000000
        0.002698244896080
        0.004772851922869
        0.003011777494036
       -0.001357067526946
       -0.001919244767249
       -0.000786958638292
        0.000000000000000
        0.000000000000000
        0.001871533082656
        0.006002150680160
        0.008960570539226
        0.002077797134433
       -0.008572241734509
       -0.006224077705459
       -0.002159683879915
        0.000000000000000
        0.000000000000000
        0.002433397834994
        0.006918649030020
        0.008341068256148
       -0.007293855700051
       -0.017521029671935
       -0.009980838858752
       -0.003096402487137
        0.000000000000000
        0.000000000000000
        0.001533097620442
        0.003483884802916
        0.001231459929663
       -0.011257758550219
       -0.014164734828243
       -0.007758025781283
       -0.002229713292131
        0.000000000000000
        0.000000000000000
        0.000486242623650
        0.000688976669132
       -0.001383125375597
       -0.006073967322767
       -0.006528727023992
       -0.003257162819915
        0.000000000000000
        0.000000000000000
        0.000000000000000
        0.000000000000000
       -0.000043939020006
       -0.000793618101091
       -0.001874006617177
       -0.001712633956441
        0.000000000000000
        0.000000000000000
        0.000000000000000
        0.000000000000000
        0.000000000000000
        0.000000000000000
        0.000000000000000
        0.000000000000000
        0.000000000000000
        0.000000000000000
        0.000000000000000
        0.000000000000000
        0.000000000000000
        0.000000000000000
        0.000000000000000
        0.000000000000000
        0.000622067105558
        0.000314623810731
        0.000000000000000
        0.000000000000000
        0.000000000000000
        0.000000000000000
        0.000000000000000
        0.002335919902435
        0.004353577475334
        0.003864393799066
        0.001058722893532
       -0.000373327677269
       -0.000298850234626
        0.000000000000000
        0.000000000000000
        0.002571346455399
        0.009056548727010
        0.016951108272642
        0.013630407438420
       -0.001417553169071
       -0.003817988744748
       -0.001631364214985
        0.000000000000000
        0.000000000000000
        0.005572280659323
        0.020167047372626
        0.041181881391349
        0.023701224890171
       -0.026521611791634
       -0.015889978187718
       -0.004739475574985
       -0.000845697364740
        0.001051554751001
        0.006577427732000
        0.024543239381067
        0.048183551600364
       -0.019349193625937
       -0.068372773702146
       -0.029336911911671
       -0.007370592538183
       -0.001143288057679
        0.000749478235686
        0.003929518170753
        0.011265684700728
        0.009520813636714
       -0.043890446991953
       -0.049712349356035
       -0.022337368579910
       -0.005965922475597
        0.000000000000000
        0.000000000000000
        0.001205370082583
        0.001991338408554
       -0.003206740317919
       -0.018424079969024
       -0.019121429479926
       -0.009652731615612
       -0.002663821898783
        0.000000000000000
        0.000000000000000
        0.000181974669158
       -0.000052666455132
       -0.001868680297764
       -0.004657558605249
       -0.004747219291608
       -0.002428395345819
        0.000000000000000
        0.000000000000000
        0.000000000000000
        0.000000000000000
        0.000000000000000
       -0.000410842939786
       -0.000713800412236
        0.000000000000000
        0.000000000000000
        0.000000000000000
        0.000000000000000
        0.000000000000000
        0.000000000000000
        0.000000000000000
        0.001097233933022
        0.001171426726349
        0.000474369250533
        0.000000000000000
        0.000000000000000
        0.000000000000000
        0.000000000000000
        0.001321976419586
        0.004296609472528
        0.007626414262006
        0.006797650142033
        0.002334661586138
       -0.000110766521398
       -0.000288767733797
        0.000000000000000
        0.000000000000000
        0.004633524028595
        0.016625923781600
        0.035455821584835
        0.031127267359515
        0.003720592796001
       -0.003557718784912
       -0.001804084577563
        0.000000000000000
        0.001390362256782
        0.009259855662731
        0.040105382405767
        0.109013980690447
        0.082574641993724
       -0.022854432162714
       -0.019647899747721
       -0.005874944581742
       -0.000998881086856
        0.001753363761227
        0.010174561628528
        0.046590556068589
        0.123595767120118
        0.000000000000000
       -0.123595767120118
       -0.046590556068589
       -0.010174561628528
       -0.001753363761227
        0.000961976141422
        0.005649646589626
        0.018532946159836
        0.019947589567617
       -0.082574641993724
       -0.106107138095350
       -0.038990428817882
       -0.009034557670615
       -0.001353457311349
        0.000000000000000
        0.001631746496327
        0.002934255741447
       -0.004835546383886
       -0.031127267359516
       -0.034340867996950
       -0.016002460738134
       -0.004461185947359
        0.000000000000000
        0.000000000000000
        0.000224505854294
       -0.000061571559838
       -0.002559959578254
       -0.006797650142033
       -0.007401116269890
       -0.004124271391292
       -0.001257714540083
        0.000000000000000
        0.000000000000000
        0.000000000000000
        0.000000000000000
       -0.000511274195966
       -0.001171426726349
       -0.001060328987588
        0.000000000000000
        0.000000000000000
        0.000000000000000
        0.000000000000000
        0.000000000000000
        0.000000000000000
        0.001025456514749
        0.000949536077996
        0.000000000000000
        0.000000000000000
        0.000000000000000
        0.000000000000000
        0.000000000000000
        0.001266740417290
        0.004055076628067
        0.007042400125364
        0.006096682049078
        0.002232775372472
        0.000140467558586
        0.000000000000000
        0.000000000000000
        0.000000000000000
        0.004305384489651
        0.015512039271893
        0.032745082429858
        0.025546006942417
        0.005258189507398
       -0.001563174033267
       -0.001042776162578
        0.000000000000000
        0.001256322235637
        0.008196050767603
        0.035624618635485
        0.099074238448291
        0.062458323637561
       -0.004777246043724
       -0.010904981977685
       -0.003892374370670
        0.000000000000000
        0.001300783647203
        0.008332074520357
        0.034095089184537
        0.080778018657700
        0.019349193625936
       -0.060588796555919
       -0.029301416653933
       -0.007538909714174
       -0.001209050340525
        0.000000000000000
        0.004286016186944
        0.013075303184968
        0.013307714008409
       -0.042269101535780
       -0.082073440293373
       -0.031000325148495
       -0.007386093363371
       -0.001160103106583
        0.000000000000000
        0.001135251605962
        0.002159356921869
       -0.003087868300115
       -0.020752334411813
       -0.028120788942868
       -0.013685388935698
       -0.003879390357249
        0.000000000000000
        0.000000000000000
        0.000000000000000
       -0.000047992115202
       -0.001839133556198
       -0.005303517242895
       -0.006232442721133
       -0.003629082495665
       -0.001149864851822
        0.000000000000000
        0.000000000000000
        0.000000000000000
        0.000000000000000
        0.000000000000000
       -0.000857802771318
       -0.000929237385695
        0.000000000000000
        0.000000000000000
        0.000000000000000
        0.000000000000000
        0.000000000000000
        0.000000000000000
        0.000000000000000
        0.000000000000000
        0.000000000000000
        0.000000000000000
        0.000000000000000
        0.000000000000000
        0.000000000000000
        0.000000000000000
        0.001964805968441
        0.003514717109179
        0.002974840986096
        0.001121933714055
        0.000000000000000
        0.000000000000000
        0.000000000000000
        0.000000000000000
        0.002070294664116
        0.007169538382694
        0.013051118054090
        0.010056427502652
        0.002720522770874
       -0.000313006091983
        0.000000000000000
        0.000000000000000
        0.000000000000000
        0.003977656951792
        0.014019492877530
        0.028306882182276
        0.018379685523612
        0.000301494855716
       -0.003457879867596
       -0.001476884769229
        0.000000000000000
        0.000000000000000
        0.003831872689927
        0.012641530493026
        0.022279206944800
        0.007293855700050
       -0.013099245529015
       -0.009579340664295
       -0.003168868037784
        0.000000000000000
        0.000000000000000
        0.001835064978704
        0.005213754968719
        0.004902669433301
       -0.009199724107827
       -0.020966100377431
       -0.011279299974988
       -0.003351070692319
        0.000000000000000
        0.000000000000000
        0.000000000000000
        0.000871924015818
       -0.000964647669751
       -0.006994237673920
       -0.010310925151548
       -0.005939270284578
       -0.001769578649474
        0.000000000000000
        0.000000000000000
        0.000000000000000
        0.000000000000000
       -0.000763753504580
       -0.002311836333953
       -0.002888130849706
       -0.001664089953799
        0.000000000000000
        0.000000000000000
        0.000000000000000
        0.000000000000000
        0.000000000000000
        0.000000000000000
        0.000000000000000
        0.000000000000000
        0.000000000000000
        0.000000000000000
        0.000000000000000
        0.000000000000000
        0.000000000000000
        0.000000000000000
        0.000000000000000
        0.000000000000000
        0.000000000000000
        0.000000000000000
        0.000000000000000
        0.000000000000000
        0.000000000000000
        0.000000000000000
        0.000000000000000
        0.000970624655974
        0.000842897986766
        0.000000000000000
        0.000000000000000
        0.000000000000000
        0.000000000000000
        0.000000000000000
        0.000000000000000
        0.001802217300743
        0.003128920114829
        0.002455557962938
        0.000759073131295
        0.000000000000000
        0.000000000000000
        0.000000000000000
        0.000000000000000
        0.001087146487721
        0.003341552095858
        0.005264289971375
        0.003579075215400
        0.000354400388911
       -0.000656501630826
        0.000000000000000
        0.000000000000000
        0.000000000000000
        0.001031415802550
        0.002975675110703
        0.004181026285954
        0.001592850366939
       -0.001846910379972
       -0.001994833004777
       -0.000789310545601
        0.000000000000000
        0.000000000000000
        0.000000000000000
        0.001236777842980
        0.001188938019394
       -0.001244959309418
       -0.003366005048843
       -0.002478831148954
       -0.000860346902511
        0.000000000000000
        0.000000000000000
        0.000000000000000
        0.000000000000000
       -0.000178796919140
       -0.001474715857012
       -0.002266199167925
       -0.001401985673516
        0.000000000000000
        0.000000000000000
        0.000000000000000
        0.000000000000000
        0.000000000000000
        0.000000000000000
       -0.000600792729817
       -0.000743825070765
        0.000000000000000
        0.000000000000000
        0.000000000000000
        0.000000000000000
        0.000000000000000
        0.000000000000000
        0.000000000000000
        0.000000000000000
        0.000000000000000
        0.000000000000000
        0.000000000000000
        0.000000000000000
        0.000000000000000
        0.000000000000000
        0.000000000000000
        0.000000000000000
        0.000000000000000
        0.000000000000000
        0.000000000000000
        0.000000000000000
        0.000000000000000
        0.000000000000000
        0.000000000000000
        0.000000000000000
        0.000000000000000
        0.000000000000000
        0.000000000000000
        0.000000000000000
        0.000000000000000
        0.000000000000000
        0.000000000000000
        0.000000000000000
        0.000000000000000
        0.000000000000000
        0.000000000000000
        0.000000000000000
        0.000000000000000
        0.000000000000000
        0.000000000000000
        0.000000000000000
        0.000000000000000
        0.000000000000000
        0.000669625496684
        0.000497740335146
        0.000000000000000
        0.000000000000000
        0.000000000000000
        0.000000000000000
        0.000000000000000
        0.000000000000000
        0.000000000000000
        0.000555859580593
        0.000274493016251
       -0.000187595745988
        0.000000000000000
        0.000000000000000
        0.000000000000000
        0.000000000000000
        0.000000000000000
        0.000000000000000
        0.000000000000000
       -0.000129476500541
       -0.000355612949176
        0.000000000000000
        0.000000000000000
        0.000000000000000
        0.000000000000000
        0.000000000000000
        0.000000000000000
        0.000000000000000
        0.000000000000000
        0.000000000000000
        0.000000000000000
        0.000000000000000
        0.000000000000000
        0.000000000000000
        0.000000000000000
        0.000000000000000
        0.000000000000000
        0.000000000000000
        0.000000000000000
        0.000000000000000
        0.000000000000000
        0.000000000000000
        0.000000000000000
        0.000000000000000
        0.000000000000000
        0.000000000000000
        0.000000000000000
        0.000000000000000
        0.000000000000000
        0.000000000000000
        0.000000000000000
END_DATAGRID_3D
END_BLOCK_DATAGRID_3D
