ATOMS
         C    7.558905    7.558905    7.558905
         H    8.755769    8.755769    8.755769
         H    6.362040    6.362040    8.755769
         H    8.755769    6.362040    6.362040
         H    6.362040    8.755769    6.362040
BEGIN_BLOCK_DATAGRID_3D
units: coords = b, function = 1/hbar/H*b^-2
BEGIN_DATAGRID_3D_function
      9      9      9
0.0 0.0 0.0
   15.117809    0.000000    0.000000
    0.000000   15.117809    0.000000
    0.000000    0.000000   15.117809
        0.000000000000000
        0.000000000000000
        0.000000000000000
        0.000000000000000
        0.000000000000000
        0.000000000000000
        0.000000000000000
        0.000000000000000
        0.000000000000000
        0.000000000000000
        0.000000000000000
        0.000000000000000
        0.000000000000000
        0.000000000000000
        0.000000000000000
        0.000000000000000
        0.000000000000000
        0.000000000000000
        0.000000000000000
        0.000000000000000
        0.000000000000000
        0.000000000000000
        0.000000000000000
        0.000000000000000
        0.000000000000000
        0.000000000000000
        0.000000000000000
        0.000000000000000
        0.000000000000000
        0.000000000000000
        0.000000000000000
       -0.000000000669781
        0.000000000449504
        0.000000000000000
        0.000000000000000
        0.000000000000000
        0.000000000000000
        0.000000000000000
        0.000000000000000
       -0.000000000352871
       -0.000000000001276
        0.000000000349719
        0.000000000000000
        0.000000000000000
        0.000000000000000
        0.000000000000000
        0.000000000000000
        0.000000000000000
       -0.000000000451247
        0.000000000666364
        0.000000000000000
        0.000000000000000
        0.000000000000000
        0.000000000000000
        0.000000000000000
        0.000000000000000
        0.000000000000000
        0.000000000000000
        0.000000000000000
        0.000000000000000
        0.000000000000000
        0.000000000000000
        0.000000000000000
        0.000000000000000
        0.000000000000000
        0.000000000000000
        0.000000000000000
        0.000000000000000
        0.000000000000000
        0.000000000000000
        0.000000000000000
        0.000000000000000
        0.000000000000000
        0.000000000000000
        0.000000000000000
        0.000000000000000
        0.000000000000000
        0.000000000000000
        0.000000000000000
        0.000000000000000
        0.000000000000000
        0.000000000000000
        0.000000000000000
        0.000000000000000
        0.000000000000000
        0.000000000000000
        0.000000000000000
        0.000000000000000
        0.000000000000000
        0.000000000000000
        0.000000000000000
        0.000000000000000
        0.000000000000000
        0.000000000000000
       -0.000000000466926
        0.000000000432391
        0.000000000000000
        0.000000000000000
        0.000000000000000
        0.000000000000000
        0.000000000000000
        0.000000000000000
       -0.000000001263057
        0.000000000026978
       -0.000000000097134
        0.000000000858876
        0.000000000000000
        0.000000000000000
        0.000000000000000
        0.000000000000000
       -0.000000000830362
       -0.000000002616015
       -0.000000006524811
        0.000000004196925
        0.000000003123269
       -0.000000000181413
        0.000000000000000
        0.000000000000000
        0.000000000109777
       -0.000000001430090
       -0.000000012101793
        0.000000000011625
        0.000000012135195
        0.000000001436820
       -0.000000000106518
        0.000000000000000
        0.000000000000000
        0.000000000182382
       -0.000000003110183
       -0.000000004198532
        0.000000006542471
        0.000000002620860
        0.000000000830179
        0.000000000000000
        0.000000000000000
        0.000000000000000
        0.000000000000000
       -0.000000000858670
        0.000000000102484
       -0.000000000023972
        0.000000001262324
        0.000000000000000
        0.000000000000000
        0.000000000000000
        0.000000000000000
        0.000000000000000
        0.000000000000000
       -0.000000000431711
        0.000000000469642
        0.000000000000000
        0.000000000000000
        0.000000000000000
        0.000000000000000
        0.000000000000000
        0.000000000000000
        0.000000000000000
        0.000000000000000
        0.000000000000000
        0.000000000000000
        0.000000000000000
        0.000000000000000
        0.000000000000000
        0.000000000000000
        0.000000000000000
        0.000000000000000
        0.000000000000000
        0.000000000000000
        0.000000000000000
        0.000000000000000
        0.000000000000000
        0.000000000000000
        0.000000000000000
        0.000000000000000
        0.000000000000000
       -0.000000000879739
       -0.000000000608601
        0.000000000451428
        0.000000000511039
        0.000000000000000
        0.000000000000000
        0.000000000000000
        0.000000000000000
       -0.000000001721587
        0.000000000336279
        0.000000003875116
       -0.000000005043676
       -0.000000001653797
        0.000000000291421
        0.000000000000000
        0.000000000000000
        0.000000000082841
       -0.000000003709487
        0.000000061976400
        0.000000110078194
       -0.000000083418375
       -0.000000065679428
        0.000000003857255
        0.000000000000000
        0.000000000000000
       -0.000000002100809
        0.000000029612943
        0.000000258865048
       -0.000000000447899
       -0.000000259559655
       -0.000000029717700
        0.000000002120025
        0.000000000000000
        0.000000000000000
       -0.000000003833951
        0.000000065495438
        0.000000084135187
       -0.000000110216215
       -0.000000062201176
        0.000000003706498
       -0.000000000081885
        0.000000000000000
        0.000000000000000
       -0.000000000290233
        0.000000001642083
        0.000000005141910
       -0.000000003847430
       -0.000000000360642
        0.000000001716904
        0.000000000000000
        0.000000000000000
        0.000000000000000
        0.000000000000000
       -0.000000000512526
       -0.000000000448944
        0.000000000612878
        0.000000000877522
        0.000000000000000
        0.000000000000000
        0.000000000000000
        0.000000000000000
        0.000000000000000
        0.000000000000000
        0.000000000000000
        0.000000000000000
        0.000000000000000
        0.000000000000000
        0.000000000000000
        0.000000000000000
        0.000000000000000
        0.000000000000000
        0.000000000000000
        0.000000000000000
       -0.000000000262455
        0.000000000010639
        0.000000000000000
        0.000000000000000
        0.000000000000000
        0.000000000000000
        0.000000000000000
       -0.000000000567199
       -0.000000001340253
        0.000000000533696
       -0.000000000547561
        0.000000000730974
        0.000000000000551
        0.000000000000000
        0.000000000000000
       -0.000000000258080
       -0.000000000880738
        0.000000013704922
       -0.000000008044099
       -0.000000026068915
       -0.000000003103019
        0.000000000246242
        0.000000000000000
        0.000000000000000
       -0.000000004110178
        0.000000056155488
        0.000000189507768
       -0.000000312938341
       -0.000000596444748
       -0.000000044240775
        0.000000002960491
        0.000000000000569
       -0.000000000036102
       -0.000000011094796
        0.000000218501478
        0.000000854822166
        0.000000002508996
       -0.000000859524554
       -0.000000219333075
        0.000000011175906
        0.000000000037083
       -0.000000000000097
       -0.000000002925775
        0.000000044170390
        0.000000593219337
        0.000000312880189
       -0.000000190155582
       -0.000000056388052
        0.000000004130556
        0.000000000000000
        0.000000000000000
       -0.000000000240972
        0.000000003128970
        0.000000026026688
        0.000000008151955
       -0.000000013737210
        0.000000000857365
        0.000000000259502
        0.000000000000000
        0.000000000000000
       -0.000000000001046
       -0.000000000728885
        0.000000000561720
       -0.000000000514262
        0.000000001337698
        0.000000000566241
        0.000000000000000
        0.000000000000000
        0.000000000000000
        0.000000000000000
        0.000000000000000
       -0.000000000010004
        0.000000000262300
        0.000000000000000
        0.000000000000000
        0.000000000000000
        0.000000000000000
        0.000000000000000
        0.000000000000000
        0.000000000000000
        0.000000000010004
       -0.000000000777152
        0.000000000010639
        0.000000000000000
        0.000000000000000
        0.000000000000000
        0.000000000000000
        0.000000000001046
       -0.000000000989459
        0.000000000506436
       -0.000000000396887
        0.000000000516351
       -0.000000000983356
        0.000000000000551
        0.000000000000000
        0.000000000000000
       -0.000000000600534
        0.000000004347973
       -0.000000009556870
       -0.000000025409492
       -0.000000009705146
        0.000000004402705
       -0.000000000599236
        0.000000000000000
        0.000000000000097
       -0.000000007080114
        0.000000107585604
       -0.000000315637798
       -0.000000771518048
       -0.000000319017127
        0.000000108011758
       -0.000000007092186
        0.000000000000569
       -0.000000000000000
       -0.000000000000000
        0.000000000000000
       -0.000000000000000
       -0.000000000000000
       -0.000000000000000
        0.000000000000000
        0.000000000000000
       -0.000000000000000
       -0.000000000000097
        0.000000007080114
       -0.000000107585604
        0.000000315637798
        0.000000771518048
        0.000000319017127
       -0.000000108011758
        0.000000007092186
       -0.000000000000569
        0.000000000000000
        0.000000000600534
       -0.000000004347973
        0.000000009556870
        0.000000025409492
        0.000000009705146
       -0.000000004402705
        0.000000000599236
        0.000000000000000
        0.000000000000000
       -0.000000000001046
        0.000000000989459
       -0.000000000506436
        0.000000000396887
       -0.000000000516351
        0.000000000983356
       -0.000000000000551
        0.000000000000000
        0.000000000000000
        0.000000000000000
        0.000000000000000
       -0.000000000010004
        0.000000000777152
       -0.000000000010639
        0.000000000000000
        0.000000000000000
        0.000000000000000
        0.000000000000000
        0.000000000000000
        0.000000000000000
        0.000000000010004
       -0.000000000262300
        0.000000000000000
        0.000000000000000
        0.000000000000000
        0.000000000000000
        0.000000000000000
        0.000000000001046
        0.000000000728885
       -0.000000000561720
        0.000000000514262
       -0.000000001337698
       -0.000000000566241
        0.000000000000000
        0.000000000000000
        0.000000000000000
        0.000000000240972
       -0.000000003128970
       -0.000000026026688
       -0.000000008151955
        0.000000013737210
       -0.000000000857365
       -0.000000000259502
        0.000000000000000
        0.000000000000097
        0.000000002925775
       -0.000000044170390
       -0.000000593219337
       -0.000000312880189
        0.000000190155582
        0.000000056388052
       -0.000000004130556
        0.000000000000000
        0.000000000036102
        0.000000011094796
       -0.000000218501478
       -0.000000854822166
       -0.000000002508996
        0.000000859524554
        0.000000219333075
       -0.000000011175906
       -0.000000000037083
        0.000000000000000
        0.000000004110178
       -0.000000056155488
       -0.000000189507768
        0.000000312938341
        0.000000596444748
        0.000000044240775
       -0.000000002960491
       -0.000000000000569
        0.000000000000000
        0.000000000258080
        0.000000000880738
       -0.000000013704922
        0.000000008044099
        0.000000026068915
        0.000000003103019
       -0.000000000246242
        0.000000000000000
        0.000000000000000
        0.000000000000000
        0.000000000567199
        0.000000001340253
       -0.000000000533696
        0.000000000547561
       -0.000000000730974
       -0.000000000000551
        0.000000000000000
        0.000000000000000
        0.000000000000000
        0.000000000000000
        0.000000000000000
        0.000000000262455
       -0.000000000010639
        0.000000000000000
        0.000000000000000
        0.000000000000000
        0.000000000000000
        0.000000000000000
        0.000000000000000
        0.000000000000000
        0.000000000000000
        0.000000000000000
        0.000000000000000
        0.000000000000000
        0.000000000000000
        0.000000000000000
        0.000000000000000
        0.000000000512526
        0.000000000448944
       -0.000000000612878
       -0.000000000877522
        0.000000000000000
        0.000000000000000
        0.000000000000000
        0.000000000000000
        0.000000000290233
       -0.000000001642083
       -0.000000005141910
        0.000000003847430
        0.000000000360642
       -0.000000001716904
        0.000000000000000
        0.000000000000000
        0.000000000000000
        0.000000003833951
       -0.000000065495438
       -0.000000084135187
        0.000000110216215
        0.000000062201176
       -0.000000003706498
        0.000000000081885
        0.000000000000000
        0.000000000000000
        0.000000002100809
       -0.000000029612943
       -0.000000258865048
        0.000000000447899
        0.000000259559655
        0.000000029717700
       -0.000000002120025
        0.000000000000000
        0.000000000000000
       -0.000000000082841
        0.000000003709487
       -0.000000061976400
       -0.000000110078194
        0.000000083418375
        0.000000065679428
       -0.000000003857255
        0.000000000000000
        0.000000000000000
        0.000000000000000
        0.000000001721587
       -0.000000000336279
       -0.000000003875116
        0.000000005043676
        0.000000001653797
       -0.000000000291421
        0.000000000000000
        0.000000000000000
        0.000000000000000
        0.000000000000000
        0.000000000879739
        0.000000000608601
       -0.000000000451428
       -0.000000000511039
        0.000000000000000
        0.000000000000000
        0.000000000000000
        0.000000000000000
        0.000000000000000
        0.000000000000000
        0.000000000000000
        0.000000000000000
        0.000000000000000
        0.000000000000000
        0.000000000000000
        0.000000000000000
        0.000000000000000
        0.000000000000000
        0.000000000000000
        0.000000000000000
        0.000000000000000
        0.000000000000000
        0.000000000000000
        0.000000000000000
        0.000000000000000
        0.000000000000000
        0.000000000000000
        0.000000000431711
       -0.000000000469642
        0.000000000000000
        0.000000000000000
        0.000000000000000
        0.000000000000000
        0.000000000000000
        0.000000000000000
        0.000000000858670
       -0.000000000102484
        0.000000000023972
       -0.000000001262324
        0.000000000000000
        0.000000000000000
        0.000000000000000
        0.000000000000000
       -0.000000000182382
        0.000000003110183
        0.000000004198532
       -0.000000006542471
       -0.000000002620860
       -0.000000000830179
        0.000000000000000
        0.000000000000000
        0.000000000000000
       -0.000000000109777
        0.000000001430090
        0.000000012101793
       -0.000000000011625
       -0.000000012135195
       -0.000000001436820
        0.000000000106518
        0.000000000000000
        0.000000000000000
        0.000000000000000
        0.000000000830362
        0.000000002616015
        0.000000006524811
       -0.000000004196925
       -0.000000003123269
        0.000000000181413
        0.000000000000000
        0.000000000000000
        0.000000000000000
        0.000000000000000
        0.000000001263057
       -0.000000000026978
        0.000000000097134
       -0.000000000858876
        0.000000000000000
        0.000000000000000
        0.000000000000000
        0.000000000000000
        0.000000000000000
        0.000000000000000
        0.000000000466926
       -0.000000000432391
        0.000000000000000
        0.000000000000000
        0.000000000000000
        0.000000000000000
        0.000000000000000
        0.000000000000000
        0.000000000000000
        0.000000000000000
        0.000000000000000
        0.000000000000000
        0.000000000000000
        0.000000000000000
        0.000000000000000
        0.000000000000000
        0.000000000000000
        0.000000000000000
        0.000000000000000
        0.000000000000000
        0.000000000000000
        0.000000000000000
        0.000000000000000
        0.000000000000000
        0.000000000000000
        0.000000000000000
        0.000000000000000
        0.000000000000000
        0.000000000000000
        0.000000000000000
        0.000000000000000
        0.000000000000000
        0.000000000000000
        0.000000000000000
        0.000000000000000
        0.000000000000000
        0.000000000000000
        0.000000000000000
        0.000000000000000
        0.000000000000000
        0.000000000000000
        0.000000000000000
        0.000000000000000
        0.000000000000000
        0.000000000451247
       -0.000000000666364
        0.000000000000000
        0.000000000000000
        0.000000000000000
        0.000000000000000
        0.000000000000000
        0.000000000000000
        0.000000000000000
        0.000000000352871
        0.000000000001276
       -0.000000000349719
        0.000000000000000
        0.000000000000000
        0.000000000000000
        0.000000000000000
        0.000000000000000
        0.000000000000000
        0.000000000000000
        0.000000000669781
       -0.000000000449504
        0.000000000000000
        0.000000000000000
        0.000000000000000
        0.000000000000000
        0.000000000000000
        0.000000000000000
        0.000000000000000
        0.000000000000000
        0.000000000000000
        0.000000000000000
        0.000000000000000
        0.000000000000000
        0.000000000000000
        0.000000000000000
        0.000000000000000
        0.000000000000000
        0.000000000000000
        0.000000000000000
        0.000000000000000
        0.000000000000000
        0.000000000000000
        0.000000000000000
        0.000000000000000
        0.000000000000000
        0.000000000000000
        0.000000000000000
        0.000000000000000
        0.000000000000000
        0.000000000000000
        0.000000000000000
END_DATAGRID_3D
END_BLOCK_DATAGRID_3D
