ATOMS
         C    7.558905    7.558905    7.558905
         H    8.755769    8.755769    8.755769
         H    6.362040    6.362040    8.755769
         H    8.755769    6.362040    6.362040
         H    6.362040    8.755769    6.362040
BEGIN_BLOCK_DATAGRID_3D
units: coords = b, function = sqrt(b^-3)
BEGIN_DATAGRID_3D_function
      9      9      9
0.0 0.0 0.0
   15.117809    0.000000    0.000000
    0.000000   15.117809    0.000000
    0.000000    0.000000   15.117809
        0.000000000000000
        0.000000000000000
        0.000000000000000
        0.000000000000000
        0.000000000000000
        0.000000000000000
        0.000000000000000
        0.000000000000000
        0.000000000000000
        0.000000000000000
        0.000000000000000
        0.000000000000000
        0.000000000000000
        0.000000000000000
        0.000000000000000
        0.000000000000000
        0.000000000000000
        0.000000000000000
        0.000000000000000
        0.000000000000000
        0.000000000000000
        0.000000000000000
        0.000000000000000
        0.000000000000000
        0.000000000000000
        0.000000000000000
        0.000000000000000
        0.000000000000000
        0.000000000000000
        0.000000000000000
        0.000000000000000
       -0.000138701275273
        0.000052346421242
        0.000000000000000
        0.000000000000000
        0.000000000000000
        0.000000000000000
        0.000000000000000
        0.000000000000000
       -0.000307318717077
       -0.000128594017843
        0.000134531521553
        0.000000000000000
        0.000000000000000
        0.000000000000000
        0.000000000000000
        0.000000000000000
        0.000000000000000
       -0.000199596928255
       -0.000033711270413
        0.000000000000000
        0.000000000000000
        0.000000000000000
        0.000000000000000
        0.000000000000000
        0.000000000000000
        0.000000000000000
        0.000000000000000
        0.000000000000000
        0.000000000000000
        0.000000000000000
        0.000000000000000
        0.000000000000000
        0.000000000000000
        0.000000000000000
        0.000000000000000
        0.000000000000000
        0.000000000000000
        0.000000000000000
        0.000000000000000
        0.000000000000000
        0.000000000000000
        0.000000000000000
        0.000000000000000
        0.000000000000000
        0.000000000000000
        0.000000000000000
        0.000000000000000
        0.000000000000000
        0.000000000000000
        0.000000000000000
        0.000000000000000
        0.000000000000000
        0.000000000000000
        0.000000000000000
        0.000000000000000
        0.000000000000000
        0.000000000000000
        0.000000000000000
        0.000000000000000
        0.000000000000000
        0.000000000000000
        0.000000000000000
        0.000000000000000
       -0.000299532100259
       -0.000102225745086
        0.000000000000000
        0.000000000000000
        0.000000000000000
        0.000000000000000
        0.000000000000000
        0.000000000000000
       -0.001086373458274
       -0.000906537660852
       -0.000013538452869
        0.000299260758515
        0.000000000000000
        0.000000000000000
        0.000000000000000
        0.000000000000000
       -0.001435716256414
       -0.002326550485557
       -0.001296317538833
        0.000614507188861
        0.000984844622634
        0.000444603406651
        0.000000000000000
        0.000000000000000
       -0.000702367875815
       -0.002003322077006
       -0.002631586436793
       -0.000746535971014
        0.001533721360069
        0.001537205065488
        0.000585576612748
        0.000000000000000
        0.000000000000000
       -0.000553497906518
       -0.001393534128056
       -0.001506245149785
        0.000202323644249
        0.001599635798505
        0.001159485274200
        0.000000000000000
        0.000000000000000
        0.000000000000000
        0.000000000000000
       -0.000488124990905
       -0.000391203493243
        0.000446831386525
        0.000813163803418
        0.000000000000000
        0.000000000000000
        0.000000000000000
        0.000000000000000
        0.000000000000000
        0.000000000000000
       -0.000003957961902
        0.000186271245203
        0.000000000000000
        0.000000000000000
        0.000000000000000
        0.000000000000000
        0.000000000000000
        0.000000000000000
        0.000000000000000
        0.000000000000000
        0.000000000000000
        0.000000000000000
        0.000000000000000
        0.000000000000000
        0.000000000000000
        0.000000000000000
        0.000000000000000
        0.000000000000000
        0.000000000000000
        0.000000000000000
        0.000000000000000
        0.000000000000000
        0.000000000000000
        0.000000000000000
        0.000000000000000
        0.000000000000000
        0.000000000000000
       -0.001443052191358
       -0.001416618157567
       -0.000392155564036
        0.000139828658025
        0.000000000000000
        0.000000000000000
        0.000000000000000
        0.000000000000000
       -0.002922707074172
       -0.005521699303403
       -0.004386529481020
        0.000067885578484
        0.001319223398595
        0.000634589927615
        0.000000000000000
        0.000000000000000
       -0.002085690113394
       -0.007046687746691
       -0.012052323393649
       -0.007458055498433
        0.004325971823932
        0.004615524864645
        0.001780406486038
        0.000000000000000
        0.000000000000000
       -0.002933293763033
       -0.009224940394826
       -0.015203704482231
       -0.003421442446571
        0.010874839056107
        0.007760489524869
        0.002607818695159
        0.000000000000000
        0.000000000000000
       -0.002084344257108
       -0.005918055632935
       -0.007780354508232
        0.003152136256700
        0.009592839867833
        0.006200026558788
        0.001907425519698
        0.000000000000000
        0.000000000000000
       -0.000779229387224
       -0.001901776924274
       -0.001354671082255
        0.002950115189181
        0.004689156764739
        0.002651394065408
        0.000000000000000
        0.000000000000000
        0.000000000000000
        0.000000000000000
       -0.000281512991125
        0.000098678370109
        0.001105625002604
        0.001273177084685
        0.000000000000000
        0.000000000000000
        0.000000000000000
        0.000000000000000
        0.000000000000000
        0.000000000000000
        0.000000000000000
        0.000000000000000
        0.000000000000000
        0.000000000000000
        0.000000000000000
        0.000000000000000
        0.000000000000000
        0.000000000000000
        0.000000000000000
        0.000000000000000
       -0.000582358846711
       -0.000296930342583
        0.000000000000000
        0.000000000000000
        0.000000000000000
        0.000000000000000
        0.000000000000000
       -0.002219858684936
       -0.004173254858714
       -0.003769310452264
       -0.001130580699731
        0.000285214492743
        0.000268672708327
        0.000000000000000
        0.000000000000000
       -0.002513200413371
       -0.008910955359820
       -0.016925049359087
       -0.014497454034616
       -0.000030235630128
        0.003151906749143
        0.001459361587129
        0.000000000000000
        0.000000000000000
       -0.005688711183166
       -0.020914282461851
       -0.044574460048301
       -0.032717719122921
        0.018237115449278
        0.013496450519898
        0.004283460660824
        0.000785886568672
       -0.001116641828253
       -0.007137633582281
       -0.028008476600702
       -0.062995385850814
       -0.009088266872562
        0.053408841726628
        0.025680367002623
        0.006727265974016
        0.001065763050461
       -0.000836943878917
       -0.004688082454796
       -0.015709343116598
       -0.026266309469926
        0.023229740168958
        0.040497076397958
        0.019827750641773
        0.005474077717904
        0.000000000000000
        0.000000000000000
       -0.001667478210236
       -0.004021401088342
       -0.002145571798025
        0.012243571332753
        0.015876053378030
        0.008599576166076
        0.002456687706666
        0.000000000000000
        0.000000000000000
       -0.000325056855795
       -0.000486738166316
        0.000751503363257
        0.003396295117145
        0.003980523746089
        0.002168836577470
        0.000000000000000
        0.000000000000000
        0.000000000000000
        0.000000000000000
        0.000000000000000
        0.000252139081708
        0.000539624013705
        0.000000000000000
        0.000000000000000
        0.000000000000000
        0.000000000000000
        0.000000000000000
        0.000000000000000
        0.000000000000000
       -0.000958009208889
       -0.001009668709481
       -0.000396894708615
        0.000000000000000
        0.000000000000000
        0.000000000000000
        0.000000000000000
       -0.001195317716312
       -0.003857285828642
       -0.006742771172185
       -0.005859286053237
       -0.001847757532668
        0.000241955985027
        0.000300916884716
        0.000000000000000
        0.000000000000000
       -0.004277403954652
       -0.015149495531000
       -0.031738379721934
       -0.026833386817421
       -0.002059372464580
        0.003853170088213
        0.001822505459595
        0.000000000000000
       -0.001323747788556
       -0.008776618703979
       -0.037504019294560
       -0.100084872874464
       -0.071195694768148
        0.025687089720815
        0.019785244998390
        0.005818516376557
        0.000978013246438
       -0.001734297167590
       -0.010055183595037
       -0.045977769591457
       -0.121939762055194
       -0.000038340282851
        0.121661625841390
        0.045848666181291
        0.009997575684365
        0.001721213464654
       -0.001002705343750
       -0.005957376366475
       -0.020372672144486
       -0.027156515756806
        0.071118917034626
        0.101248896974039
        0.037909765743483
        0.008832208125707
        0.001331491133295
        0.000000000000000
       -0.001913619646301
       -0.004162005331324
        0.001524087433224
        0.026813538608495
        0.032196325869817
        0.015386997588496
        0.004334533196083
        0.000000000000000
        0.000000000000000
       -0.000332810945161
       -0.000324639917688
        0.001743054636830
        0.005856314116356
        0.006833818025987
        0.003923074332483
        0.001218873392164
        0.000000000000000
        0.000000000000000
        0.000000000000000
        0.000000000000000
        0.000379940685233
        0.001009247924701
        0.000973727092998
        0.000000000000000
        0.000000000000000
        0.000000000000000
        0.000000000000000
        0.000000000000000
        0.000000000000000
       -0.000858434364007
       -0.000772165019372
        0.000000000000000
        0.000000000000000
        0.000000000000000
        0.000000000000000
        0.000000000000000
       -0.001106468283750
       -0.003465442624370
       -0.005856636024471
       -0.004816823293578
       -0.001506406373492
        0.000081582958819
        0.000000000000000
        0.000000000000000
        0.000000000000000
       -0.003778028346233
       -0.013258970703707
       -0.026999397652842
       -0.019275786316363
       -0.002233831694058
        0.002431753510877
        0.001186064819785
        0.000000000000000
       -0.001146783712907
       -0.007295034767616
       -0.030571480272201
       -0.080878114890068
       -0.041580525352333
        0.013131151924075
        0.012873095947052
        0.004213992128460
        0.000000000000000
       -0.001209811304053
       -0.007596361488174
       -0.029868214838343
       -0.064246002780456
        0.009011489139039
        0.073527144968226
        0.032014643739250
        0.007923458528248
        0.001243741329273
        0.000000000000000
       -0.004052675171497
       -0.011903015125915
       -0.009193967678357
        0.050963373299032
        0.088654360722324
        0.032639976955096
        0.007631377887731
        0.001183381630210
        0.000000000000000
       -0.001149274768416
       -0.002163446898456
        0.003243381088618
        0.021502240310770
        0.029104013621453
        0.014065589941163
        0.003956139384280
        0.000000000000000
        0.000000000000000
        0.000000000000000
       -0.000039073442814
        0.001691486071814
        0.005185235202309
        0.006222616667819
        0.003651073592515
        0.001155032505784
        0.000000000000000
        0.000000000000000
        0.000000000000000
        0.000000000000000
        0.000000000000000
        0.000814442045662
        0.000902003499718
        0.000000000000000
        0.000000000000000
        0.000000000000000
        0.000000000000000
        0.000000000000000
        0.000000000000000
        0.000000000000000
        0.000000000000000
        0.000000000000000
        0.000000000000000
        0.000000000000000
        0.000000000000000
        0.000000000000000
        0.000000000000000
       -0.001614938109350
       -0.002783607458469
       -0.002191520543758
       -0.000691931687028
        0.000000000000000
        0.000000000000000
        0.000000000000000
        0.000000000000000
       -0.001746909034174
       -0.005857421097012
       -0.010158072564090
       -0.006879511002107
       -0.000942391691498
        0.000860304174340
        0.000000000000000
        0.000000000000000
        0.000000000000000
       -0.003361162299361
       -0.011362316159114
       -0.021364614942635
       -0.010184351240310
        0.004049381816139
        0.004831303118165
        0.001735327006753
        0.000000000000000
        0.000000000000000
       -0.003257729837919
       -0.010086560467498
       -0.015010587806479
        0.003401594237646
        0.019262114349130
        0.011479678151840
        0.003549219960519
        0.000000000000000
        0.000000000000000
       -0.001576785068393
       -0.004027714511585
       -0.001629344876819
        0.014462841774586
        0.024747806167393
        0.012601971825661
        0.003635094485371
        0.000000000000000
        0.000000000000000
        0.000000000000000
       -0.000602144129259
        0.001762620304269
        0.008306394812480
        0.011416455425488
        0.006410148852030
        0.001877871157803
        0.000000000000000
        0.000000000000000
        0.000000000000000
        0.000000000000000
        0.000860038180953
        0.002500412518440
        0.003070394815900
        0.001749610521456
        0.000000000000000
        0.000000000000000
        0.000000000000000
        0.000000000000000
        0.000000000000000
        0.000000000000000
        0.000000000000000
        0.000000000000000
        0.000000000000000
        0.000000000000000
        0.000000000000000
        0.000000000000000
        0.000000000000000
        0.000000000000000
        0.000000000000000
        0.000000000000000
        0.000000000000000
        0.000000000000000
        0.000000000000000
        0.000000000000000
        0.000000000000000
        0.000000000000000
        0.000000000000000
       -0.000732472406729
       -0.000591064431022
        0.000000000000000
        0.000000000000000
        0.000000000000000
        0.000000000000000
        0.000000000000000
        0.000000000000000
       -0.001408326109570
       -0.002293725595118
       -0.001532726927679
       -0.000231918405760
        0.000000000000000
        0.000000000000000
        0.000000000000000
        0.000000000000000
       -0.000878027233027
       -0.002558646662629
       -0.003598887511429
       -0.001622851820682
        0.000874481574092
        0.001090934262089
        0.000000000000000
        0.000000000000000
        0.000000000000000
       -0.000825760785659
       -0.002178603669325
       -0.002368130098562
        0.000743564034133
        0.003452339133250
        0.002627825252022
        0.000934213664131
        0.000000000000000
        0.000000000000000
        0.000000000000000
       -0.000823215871336
       -0.000155218301342
        0.002712242288877
        0.004477528779227
        0.002951443462624
        0.000979101807460
        0.000000000000000
        0.000000000000000
        0.000000000000000
        0.000000000000000
        0.000503359447869
        0.001990332021726
        0.002691777704734
        0.001590178420966
        0.000000000000000
        0.000000000000000
        0.000000000000000
        0.000000000000000
        0.000000000000000
        0.000000000000000
        0.000703777384851
        0.000837229211306
        0.000000000000000
        0.000000000000000
        0.000000000000000
        0.000000000000000
        0.000000000000000
        0.000000000000000
        0.000000000000000
        0.000000000000000
        0.000000000000000
        0.000000000000000
        0.000000000000000
        0.000000000000000
        0.000000000000000
        0.000000000000000
        0.000000000000000
        0.000000000000000
        0.000000000000000
        0.000000000000000
        0.000000000000000
        0.000000000000000
        0.000000000000000
        0.000000000000000
        0.000000000000000
        0.000000000000000
        0.000000000000000
        0.000000000000000
        0.000000000000000
        0.000000000000000
        0.000000000000000
        0.000000000000000
        0.000000000000000
        0.000000000000000
        0.000000000000000
        0.000000000000000
        0.000000000000000
        0.000000000000000
        0.000000000000000
        0.000000000000000
        0.000000000000000
        0.000000000000000
        0.000000000000000
        0.000000000000000
       -0.000406698354045
       -0.000198829735255
        0.000000000000000
        0.000000000000000
        0.000000000000000
        0.000000000000000
        0.000000000000000
        0.000000000000000
        0.000000000000000
       -0.000270749806579
        0.000128173233062
        0.000442300862831
        0.000000000000000
        0.000000000000000
        0.000000000000000
        0.000000000000000
        0.000000000000000
        0.000000000000000
        0.000000000000000
        0.000370784474225
        0.000552726735892
        0.000000000000000
        0.000000000000000
        0.000000000000000
        0.000000000000000
        0.000000000000000
        0.000000000000000
        0.000000000000000
        0.000000000000000
        0.000000000000000
        0.000000000000000
        0.000000000000000
        0.000000000000000
        0.000000000000000
        0.000000000000000
        0.000000000000000
        0.000000000000000
        0.000000000000000
        0.000000000000000
        0.000000000000000
        0.000000000000000
        0.000000000000000
        0.000000000000000
        0.000000000000000
        0.000000000000000
        0.000000000000000
        0.000000000000000
        0.000000000000000
        0.000000000000000
        0.000000000000000
        0.000000000000000
END_DATAGRID_3D
END_BLOCK_DATAGRID_3D
