ATOMS
         C    7.558905    7.558905    7.558905
         H    8.755769    8.755769    8.755769
         H    6.362040    6.362040    8.755769
         H    8.755769    6.362040    6.362040
         H    6.362040    8.755769    6.362040
BEGIN_BLOCK_DATAGRID_3D
units: coords = b, function = sqrt(b^-3)
BEGIN_DATAGRID_3D_function
      9      9      9
0.0 0.0 0.0
   15.117809    0.000000    0.000000
    0.000000   15.117809    0.000000
    0.000000    0.000000   15.117809
        0.000000000000000
        0.000000000000000
        0.000000000000000
        0.000000000000000
        0.000000000000000
        0.000000000000000
        0.000000000000000
        0.000000000000000
        0.000000000000000
        0.000000000000000
        0.000000000000000
        0.000000000000000
        0.000000000000000
        0.000000000000000
        0.000000000000000
        0.000000000000000
        0.000000000000000
        0.000000000000000
        0.000000000000000
        0.000000000000000
        0.000000000000000
        0.000000000000000
        0.000000000000000
        0.000000000000000
        0.000000000000000
        0.000000000000000
        0.000000000000000
        0.000000000000000
        0.000000000000000
        0.000000000000000
        0.000000000000000
       -0.000416518435375
       -0.000406637777465
        0.000000000000000
        0.000000000000000
        0.000000000000000
        0.000000000000000
        0.000000000000000
        0.000000000000000
       -0.000246820120135
       -0.000485591816517
       -0.000406081416512
        0.000000000000000
        0.000000000000000
        0.000000000000000
        0.000000000000000
        0.000000000000000
        0.000000000000000
       -0.000151199443685
       -0.000234968000393
        0.000000000000000
        0.000000000000000
        0.000000000000000
        0.000000000000000
        0.000000000000000
        0.000000000000000
        0.000000000000000
        0.000000000000000
        0.000000000000000
        0.000000000000000
        0.000000000000000
        0.000000000000000
        0.000000000000000
        0.000000000000000
        0.000000000000000
        0.000000000000000
        0.000000000000000
        0.000000000000000
        0.000000000000000
        0.000000000000000
        0.000000000000000
        0.000000000000000
        0.000000000000000
        0.000000000000000
        0.000000000000000
        0.000000000000000
        0.000000000000000
        0.000000000000000
        0.000000000000000
        0.000000000000000
        0.000000000000000
        0.000000000000000
        0.000000000000000
        0.000000000000000
        0.000000000000000
        0.000000000000000
        0.000000000000000
        0.000000000000000
        0.000000000000000
        0.000000000000000
        0.000000000000000
        0.000000000000000
        0.000000000000000
        0.000000000000000
       -0.000436349587338
       -0.000442323895513
        0.000000000000000
        0.000000000000000
        0.000000000000000
        0.000000000000000
        0.000000000000000
        0.000000000000000
       -0.000737080507386
       -0.001473886915717
       -0.001487389142265
       -0.000759200773031
        0.000000000000000
        0.000000000000000
        0.000000000000000
        0.000000000000000
       -0.000391060407806
       -0.001452576838832
       -0.002799857207784
       -0.002758299979327
       -0.001448738050443
       -0.000421596687555
        0.000000000000000
        0.000000000000000
       -0.000036838589058
       -0.000380362932960
       -0.001461469594523
       -0.002817702240369
       -0.002678767566205
       -0.001373096620139
       -0.000401555199314
        0.000000000000000
        0.000000000000000
        0.000008394156042
       -0.000102643131709
       -0.000619830942077
       -0.001329055892944
       -0.001275553976772
       -0.000639773215330
        0.000000000000000
        0.000000000000000
        0.000000000000000
        0.000000000000000
        0.000036315759596
       -0.000052330649073
       -0.000261120547621
       -0.000284979151339
        0.000000000000000
        0.000000000000000
        0.000000000000000
        0.000000000000000
        0.000000000000000
        0.000000000000000
        0.000036683981989
        0.000008008988761
        0.000000000000000
        0.000000000000000
        0.000000000000000
        0.000000000000000
        0.000000000000000
        0.000000000000000
        0.000000000000000
        0.000000000000000
        0.000000000000000
        0.000000000000000
        0.000000000000000
        0.000000000000000
        0.000000000000000
        0.000000000000000
        0.000000000000000
        0.000000000000000
        0.000000000000000
        0.000000000000000
        0.000000000000000
        0.000000000000000
        0.000000000000000
        0.000000000000000
        0.000000000000000
        0.000000000000000
        0.000000000000000
       -0.000713915100403
       -0.001440419493162
       -0.001462284974689
       -0.000748521892237
        0.000000000000000
        0.000000000000000
        0.000000000000000
        0.000000000000000
       -0.000626431243042
       -0.002585347765497
       -0.005419098506869
       -0.005563251624227
       -0.002739456905551
       -0.000729164744190
        0.000000000000000
        0.000000000000000
       -0.000084059703137
       -0.001081456130377
       -0.005113212468161
       -0.012434941609254
       -0.012624900579271
       -0.005376179932658
       -0.001374054027919
        0.000000000000000
        0.000000000000000
        0.000057232600568
       -0.000614967587664
       -0.004706733318851
       -0.012901932292231
       -0.011595717570525
       -0.004881825103405
       -0.001267106242928
        0.000000000000000
        0.000000000000000
        0.000220720537761
        0.000419283581178
       -0.000474897444897
       -0.003802736185646
       -0.004081144628007
       -0.002041729755662
       -0.000562750562194
        0.000000000000000
        0.000000000000000
        0.000171812945049
        0.000501737607815
        0.000657146009529
        0.000002752533755
       -0.000500067725221
       -0.000356654712010
        0.000000000000000
        0.000000000000000
        0.000000000000000
        0.000000000000000
        0.000198735914521
        0.000336794586079
        0.000267747279472
        0.000088060183209
        0.000000000000000
        0.000000000000000
        0.000000000000000
        0.000000000000000
        0.000000000000000
        0.000000000000000
        0.000000000000000
        0.000000000000000
        0.000000000000000
        0.000000000000000
        0.000000000000000
        0.000000000000000
        0.000000000000000
        0.000000000000000
        0.000000000000000
        0.000000000000000
       -0.000387393025383
       -0.000383487908583
        0.000000000000000
        0.000000000000000
        0.000000000000000
        0.000000000000000
        0.000000000000000
       -0.000340674372391
       -0.001332673475715
       -0.002637591542874
       -0.002642596289385
       -0.001401868876163
       -0.000409689314364
        0.000000000000000
        0.000000000000000
       -0.000056883254883
       -0.000961686100316
       -0.004796810249944
       -0.011973046667078
       -0.012336092555114
       -0.005278134744625
       -0.001352325295962
        0.000000000000000
        0.000000000000000
        0.000144867972947
       -0.000881206381830
       -0.009652942903128
       -0.035101326047371
       -0.037493570397082
       -0.011737365858419
       -0.002404591152648
       -0.000335839119691
        0.000134184291584
        0.000670200183022
        0.001386042564257
       -0.005021858153572
       -0.034222564421344
       -0.030927569792732
       -0.010080740503308
       -0.002153741829203
       -0.000313141847763
        0.000147663527274
        0.000877679240502
        0.003274838862367
        0.007003998001903
       -0.000607282355560
       -0.005391392479810
       -0.002995951749550
       -0.000869741854690
        0.000000000000000
        0.000000000000000
        0.000544892413760
        0.001910095228910
        0.004001413644477
        0.003495293575791
        0.001015191308174
       -0.000075102276004
       -0.000107989875280
        0.000000000000000
        0.000000000000000
        0.000186036142749
        0.000610083607758
        0.001173618192975
        0.001234885063390
        0.000655739795456
        0.000187335052979
        0.000000000000000
        0.000000000000000
        0.000000000000000
        0.000000000000000
        0.000000000000000
        0.000207765591497
        0.000225040618681
        0.000000000000000
        0.000000000000000
        0.000000000000000
        0.000000000000000
        0.000000000000000
        0.000000000000000
        0.000000000000000
       -0.000204557564529
       -0.000427781474126
       -0.000370858723005
        0.000000000000000
        0.000000000000000
        0.000000000000000
        0.000000000000000
       -0.000005503979833
       -0.000261257856962
       -0.001194539392700
       -0.002482232013198
       -0.002454566003028
       -0.001286325911543
       -0.000382291471236
        0.000000000000000
        0.000000000000000
        0.000142667730416
       -0.000234328975239
       -0.003633038872734
       -0.011365762128480
       -0.010738257818854
       -0.004620079334158
       -0.001213955224260
        0.000000000000000
        0.000147220461034
        0.000774335973755
        0.001996280418191
       -0.002612678745901
       -0.030147363111742
       -0.029090439261380
       -0.009685892140301
       -0.002092219795162
       -0.000307153773378
        0.000275242310903
        0.001611571777788
        0.007458011713372
        0.019981531142048
        0.000033812391741
       -0.020343952565206
       -0.007743067532102
       -0.001708014532774
       -0.000296799222551
        0.000222017642546
        0.001587757651083
        0.007388827500308
        0.023460857383755
        0.030162991840904
        0.007862403303419
       -0.000060860254232
       -0.000410107255153
       -0.000091069936926
        0.000000000000000
        0.000850173440680
        0.003364590554167
        0.008582781122640
        0.011369125391511
        0.005697534396192
        0.001368484774235
        0.000162665313963
        0.000000000000000
        0.000000000000000
        0.000250580817808
        0.000939051444816
        0.002013523367182
        0.002482750484405
        0.001620519602502
        0.000582366288902
        0.000122808701308
        0.000000000000000
        0.000000000000000
        0.000000000000000
        0.000000000000000
        0.000299299238715
        0.000427827925023
        0.000274419147528
        0.000000000000000
        0.000000000000000
        0.000000000000000
        0.000000000000000
        0.000000000000000
        0.000000000000000
       -0.000108406079049
       -0.000186537712044
        0.000000000000000
        0.000000000000000
        0.000000000000000
        0.000000000000000
        0.000000000000000
        0.000043545486027
        0.000030460244081
       -0.000337368728513
       -0.000999726592389
       -0.001069617020765
       -0.000567577761161
        0.000000000000000
        0.000000000000000
        0.000000000000000
        0.000328368593063
        0.000890935551568
        0.000773032887474
       -0.002331172933867
       -0.003297076873085
       -0.001789287053382
       -0.000513937443018
        0.000000000000000
        0.000167171164814
        0.001043269314596
        0.004230208639180
        0.010550464133265
        0.003644771870086
       -0.003577634646608
       -0.002530025921786
       -0.000784470815462
        0.000000000000000
        0.000235053811996
        0.001691893441816
        0.007999065354241
        0.025870036791425
        0.034238193150505
        0.009699533834770
        0.000333988108775
       -0.000348585221112
       -0.000085081862541
        0.000000000000000
        0.001417325032987
        0.006201136267962
        0.018462209323624
        0.032080695259856
        0.019616766472976
        0.003943564409564
        0.000369415122396
       -0.000003726420696
        0.000000000000000
        0.000644284395554
        0.002756681226296
        0.007038078323465
        0.010813501292227
        0.007473078131380
        0.002368374758382
        0.000427627407356
        0.000000000000000
        0.000000000000000
        0.000000000000000
        0.000706910595219
        0.001739185137859
        0.002403207323823
        0.001790821385957
        0.000736557643185
        0.000166609255815
        0.000000000000000
        0.000000000000000
        0.000000000000000
        0.000000000000000
        0.000000000000000
        0.000348982606735
        0.000282318640913
        0.000000000000000
        0.000000000000000
        0.000000000000000
        0.000000000000000
        0.000000000000000
        0.000000000000000
        0.000000000000000
        0.000000000000000
        0.000000000000000
        0.000000000000000
        0.000000000000000
        0.000000000000000
        0.000000000000000
        0.000000000000000
        0.000108721661186
        0.000102999063023
       -0.000088003338030
       -0.000185214948674
        0.000000000000000
        0.000000000000000
        0.000000000000000
        0.000000000000000
        0.000233327870184
        0.000755861686461
        0.001228741150347
        0.000647715293529
       -0.000126689622677
       -0.000236693798887
        0.000000000000000
        0.000000000000000
        0.000000000000000
        0.000652540469061
        0.002381747199301
        0.005249343976848
        0.004966856827570
        0.001799259063097
        0.000177340426277
       -0.000059176756104
        0.000000000000000
        0.000000000000000
        0.000935608570527
        0.003745229166592
        0.009656475568758
        0.012905295555262
        0.006554994147863
        0.001630230543482
        0.000215816332631
        0.000000000000000
        0.000000000000000
        0.000671460843809
        0.002876451256357
        0.007354480541682
        0.011275396234402
        0.007761886155537
        0.002466419946415
        0.000449356139313
        0.000000000000000
        0.000000000000000
        0.000000000000000
        0.001197916000091
        0.003201094512571
        0.004770210171582
        0.003642231270718
        0.001433076907015
        0.000300202294708
        0.000000000000000
        0.000000000000000
        0.000000000000000
        0.000000000000000
        0.000809490202074
        0.001260996032369
        0.001014267486637
        0.000429262102118
        0.000000000000000
        0.000000000000000
        0.000000000000000
        0.000000000000000
        0.000000000000000
        0.000000000000000
        0.000000000000000
        0.000000000000000
        0.000000000000000
        0.000000000000000
        0.000000000000000
        0.000000000000000
        0.000000000000000
        0.000000000000000
        0.000000000000000
        0.000000000000000
        0.000000000000000
        0.000000000000000
        0.000000000000000
        0.000000000000000
        0.000000000000000
        0.000000000000000
        0.000000000000000
        0.000084003868229
        0.000058990291580
        0.000000000000000
        0.000000000000000
        0.000000000000000
        0.000000000000000
        0.000000000000000
        0.000000000000000
        0.000271141816111
        0.000492124298175
        0.000440864489063
        0.000187824385874
        0.000000000000000
        0.000000000000000
        0.000000000000000
        0.000000000000000
        0.000221187472734
        0.000743186983549
        0.001456080406539
        0.001564214363945
        0.000861676751463
        0.000259530507148
        0.000000000000000
        0.000000000000000
        0.000000000000000
        0.000281915427034
        0.001058156520815
        0.002280453569005
        0.002818220711577
        0.001844721165680
        0.000669136997498
        0.000142072429387
        0.000000000000000
        0.000000000000000
        0.000000000000000
        0.000757296630635
        0.001859088500975
        0.002565472988733
        0.001906525075900
        0.000783426817464
        0.000178516629006
        0.000000000000000
        0.000000000000000
        0.000000000000000
        0.000000000000000
        0.000832655609057
        0.001294463454923
        0.001039371654214
        0.000439940982912
        0.000000000000000
        0.000000000000000
        0.000000000000000
        0.000000000000000
        0.000000000000000
        0.000000000000000
        0.000369421989099
        0.000319432016033
        0.000000000000000
        0.000000000000000
        0.000000000000000
        0.000000000000000
        0.000000000000000
        0.000000000000000
        0.000000000000000
        0.000000000000000
        0.000000000000000
        0.000000000000000
        0.000000000000000
        0.000000000000000
        0.000000000000000
        0.000000000000000
        0.000000000000000
        0.000000000000000
        0.000000000000000
        0.000000000000000
        0.000000000000000
        0.000000000000000
        0.000000000000000
        0.000000000000000
        0.000000000000000
        0.000000000000000
        0.000000000000000
        0.000000000000000
        0.000000000000000
        0.000000000000000
        0.000000000000000
        0.000000000000000
        0.000000000000000
        0.000000000000000
        0.000000000000000
        0.000000000000000
        0.000000000000000
        0.000000000000000
        0.000000000000000
        0.000000000000000
        0.000000000000000
        0.000000000000000
        0.000000000000000
        0.000000000000000
        0.000250558956132
        0.000273470907030
        0.000000000000000
        0.000000000000000
        0.000000000000000
        0.000000000000000
        0.000000000000000
        0.000000000000000
        0.000000000000000
        0.000341561794321
        0.000485638267414
        0.000309641841035
        0.000000000000000
        0.000000000000000
        0.000000000000000
        0.000000000000000
        0.000000000000000
        0.000000000000000
        0.000000000000000
        0.000378108016727
        0.000305468509795
        0.000000000000000
        0.000000000000000
        0.000000000000000
        0.000000000000000
        0.000000000000000
        0.000000000000000
        0.000000000000000
        0.000000000000000
        0.000000000000000
        0.000000000000000
        0.000000000000000
        0.000000000000000
        0.000000000000000
        0.000000000000000
        0.000000000000000
        0.000000000000000
        0.000000000000000
        0.000000000000000
        0.000000000000000
        0.000000000000000
        0.000000000000000
        0.000000000000000
        0.000000000000000
        0.000000000000000
        0.000000000000000
        0.000000000000000
        0.000000000000000
        0.000000000000000
        0.000000000000000
        0.000000000000000
END_DATAGRID_3D
END_BLOCK_DATAGRID_3D
