ATOMS
         C    7.558905    7.558905    7.558905
         H    8.755769    8.755769    8.755769
         H    6.362040    6.362040    8.755769
         H    8.755769    6.362040    6.362040
         H    6.362040    8.755769    6.362040
BEGIN_BLOCK_DATAGRID_3D
units: coords = b, function = sqrt(b^-3)
BEGIN_DATAGRID_3D_function
      9      9      9
0.0 0.0 0.0
   15.117809    0.000000    0.000000
    0.000000   15.117809    0.000000
    0.000000    0.000000   15.117809
        0.000000000000000
        0.000000000000000
        0.000000000000000
        0.000000000000000
        0.000000000000000
        0.000000000000000
        0.000000000000000
        0.000000000000000
        0.000000000000000
        0.000000000000000
        0.000000000000000
        0.000000000000000
        0.000000000000000
        0.000000000000000
        0.000000000000000
        0.000000000000000
        0.000000000000000
        0.000000000000000
        0.000000000000000
        0.000000000000000
        0.000000000000000
        0.000000000000000
        0.000000000000000
        0.000000000000000
        0.000000000000000
        0.000000000000000
        0.000000000000000
        0.000000000000000
        0.000000000000000
        0.000000000000000
        0.000000000000000
        0.001077451214526
        0.000849283323486
        0.000000000000000
        0.000000000000000
        0.000000000000000
        0.000000000000000
        0.000000000000000
        0.000000000000000
        0.001375868484396
        0.001875019769518
        0.001139978171367
        0.000000000000000
        0.000000000000000
        0.000000000000000
        0.000000000000000
        0.000000000000000
        0.000000000000000
        0.001295688920289
        0.001438395441237
        0.000000000000000
        0.000000000000000
        0.000000000000000
        0.000000000000000
        0.000000000000000
        0.000000000000000
        0.000000000000000
        0.000000000000000
        0.000000000000000
        0.000000000000000
        0.000000000000000
        0.000000000000000
        0.000000000000000
        0.000000000000000
        0.000000000000000
        0.000000000000000
        0.000000000000000
        0.000000000000000
        0.000000000000000
        0.000000000000000
        0.000000000000000
        0.000000000000000
        0.000000000000000
        0.000000000000000
        0.000000000000000
        0.000000000000000
        0.000000000000000
        0.000000000000000
        0.000000000000000
        0.000000000000000
        0.000000000000000
        0.000000000000000
        0.000000000000000
        0.000000000000000
        0.000000000000000
        0.000000000000000
        0.000000000000000
        0.000000000000000
        0.000000000000000
        0.000000000000000
        0.000000000000000
        0.000000000000000
        0.000000000000000
        0.000000000000000
        0.000370134659665
        0.000313390626295
        0.000000000000000
        0.000000000000000
        0.000000000000000
        0.000000000000000
        0.000000000000000
        0.000000000000000
        0.001416802526253
        0.002101381311313
        0.001611323379259
        0.000669591449101
        0.000000000000000
        0.000000000000000
        0.000000000000000
        0.000000000000000
        0.002033001617080
        0.004822516478936
        0.006467048799139
        0.004604672461162
        0.001840025324821
        0.000438742217487
        0.000000000000000
        0.000000000000000
        0.001080593182714
        0.004038817230976
        0.008829183580859
        0.010880256861908
        0.007114635959534
        0.002660886015750
        0.000572881305153
        0.000000000000000
        0.000000000000000
        0.001110377774764
        0.004052365584584
        0.008361871797076
        0.009476770741254
        0.005720376197886
        0.001930676633793
        0.000000000000000
        0.000000000000000
        0.000000000000000
        0.000000000000000
        0.002064405806819
        0.004281067530146
        0.004598321935413
        0.002546875724620
        0.000000000000000
        0.000000000000000
        0.000000000000000
        0.000000000000000
        0.000000000000000
        0.000000000000000
        0.001235729365956
        0.001283339828201
        0.000000000000000
        0.000000000000000
        0.000000000000000
        0.000000000000000
        0.000000000000000
        0.000000000000000
        0.000000000000000
        0.000000000000000
        0.000000000000000
        0.000000000000000
        0.000000000000000
        0.000000000000000
        0.000000000000000
        0.000000000000000
        0.000000000000000
        0.000000000000000
        0.000000000000000
        0.000000000000000
        0.000000000000000
        0.000000000000000
        0.000000000000000
        0.000000000000000
        0.000000000000000
        0.000000000000000
        0.000000000000000
        0.000273958521388
        0.000466224373758
        0.000396677257601
        0.000157490391101
        0.000000000000000
        0.000000000000000
        0.000000000000000
        0.000000000000000
        0.001271399612444
        0.003311178336968
        0.004793936008078
        0.003542229093396
        0.001348589496754
        0.000270997865433
        0.000000000000000
        0.000000000000000
        0.001405285857372
        0.006001004288793
        0.015299728685863
        0.022403198412474
        0.014346774898075
        0.004583949556803
        0.000894606167886
        0.000000000000000
        0.000000000000000
        0.003140694849506
        0.013341542734965
        0.036106397801555
        0.049819241642557
        0.026598232702162
        0.007574892831548
        0.001388162490935
        0.000000000000000
        0.000000000000000
        0.003385211966254
        0.014133567479376
        0.035795657394895
        0.040301432091243
        0.020249830468531
        0.005993577581967
        0.001041144615930
        0.000000000000000
        0.000000000000000
        0.001783130406764
        0.007054617995269
        0.015175287942783
        0.016122499558434
        0.008683403533791
        0.002546100489134
        0.000000000000000
        0.000000000000000
        0.000000000000000
        0.000000000000000
        0.001896637881096
        0.003883140876539
        0.004062632966682
        0.002172471951915
        0.000000000000000
        0.000000000000000
        0.000000000000000
        0.000000000000000
        0.000000000000000
        0.000000000000000
        0.000000000000000
        0.000000000000000
        0.000000000000000
        0.000000000000000
        0.000000000000000
        0.000000000000000
        0.000000000000000
        0.000000000000000
        0.000000000000000
        0.000000000000000
       -0.000345495198509
       -0.000271195397346
        0.000000000000000
        0.000000000000000
        0.000000000000000
        0.000000000000000
        0.000000000000000
       -0.000476918340958
       -0.001093363550675
       -0.001461292222945
       -0.000994391398782
       -0.000406433978990
       -0.000126794835022
        0.000000000000000
        0.000000000000000
        0.000038209904200
        0.000033458358105
       -0.000310984910532
       -0.000164247364645
        0.000370583007370
       -0.000115883247945
       -0.000137207014267
        0.000000000000000
        0.000000000000000
        0.001573174389100
        0.006725425541233
        0.019406172642025
        0.032316496936044
        0.018636780054255
        0.003468413440473
        0.000246644110595
       -0.000022840687552
        0.000594304347139
        0.004474481988419
        0.023711056608588
        0.085879228518957
        0.132165355284332
        0.052024768214674
        0.009032873392692
        0.000943615979856
        0.000032428594427
        0.000680257462900
        0.005286543397458
        0.028119127725804
        0.097491018772643
        0.105587499797587
        0.038862734558419
        0.008099239918495
        0.001115754151682
        0.000000000000000
        0.000000000000000
        0.003047182675747
        0.012593869037866
        0.031216958158907
        0.032908177365926
        0.015135650370261
        0.004038567361211
        0.000593280872266
        0.000000000000000
        0.000000000000000
        0.000925103839596
        0.003316409640470
        0.006527578906834
        0.006879390191219
        0.003782292091457
        0.001108409117424
        0.000000000000000
        0.000000000000000
        0.000000000000000
        0.000000000000000
        0.000000000000000
        0.000928612172693
        0.000972228140075
        0.000000000000000
        0.000000000000000
        0.000000000000000
        0.000000000000000
        0.000000000000000
        0.000000000000000
        0.000000000000000
       -0.000709135175596
       -0.000949640954031
       -0.000565065266029
        0.000000000000000
        0.000000000000000
        0.000000000000000
        0.000000000000000
       -0.000495603174997
       -0.001894661622355
       -0.004339700159176
       -0.005510521901911
       -0.003735363499022
       -0.001498535978213
       -0.000341831776703
        0.000000000000000
        0.000000000000000
       -0.001157627066270
       -0.005621853653397
       -0.016862446882526
       -0.025231943114233
       -0.014895557007227
       -0.004971690025036
       -0.001136102565473
        0.000000000000000
       -0.000067752899817
       -0.000766060729533
       -0.006690342298374
       -0.032953018109238
       -0.066937765735840
       -0.036891196416824
       -0.009893470539577
       -0.001978042456616
       -0.000249668429935
        0.000323553388761
        0.001877496992558
        0.008596807735569
        0.022806452110102
        0.000000000000001
       -0.022806452110105
       -0.008596807735570
       -0.001877496992558
       -0.000323553388761
        0.000501887368322
        0.003517326036676
        0.017510652580051
        0.056749730118456
        0.066937765735837
        0.013094484407601
       -0.000926839742103
       -0.000773222850527
       -0.000184466038570
        0.000000000000000
        0.002313727777532
        0.009231193521893
        0.022512739047701
        0.025231943114232
        0.009245264842049
        0.001362350156539
       -0.000019998145789
        0.000000000000000
        0.000000000000000
        0.000780926712634
        0.002676161190272
        0.005274647079081
        0.005510521901911
        0.002800416579116
        0.000717036410296
        0.000056508239066
        0.000000000000000
        0.000000000000000
        0.000000000000000
        0.000000000000000
        0.000817284204416
        0.000949640954031
        0.000456916237209
        0.000000000000000
        0.000000000000000
        0.000000000000000
        0.000000000000000
        0.000000000000000
        0.000000000000000
       -0.000815168341887
       -0.000928705243116
        0.000000000000000
        0.000000000000000
        0.000000000000000
        0.000000000000000
        0.000000000000000
       -0.000657787712461
       -0.002577884274982
       -0.005572772137336
       -0.006613771435253
       -0.004246293567948
       -0.001530565130322
        0.000000000000000
        0.000000000000000
        0.000000000000000
       -0.002030391771654
       -0.009363974524381
       -0.025766212437120
       -0.031593756525107
       -0.017693794462776
       -0.006108352263826
       -0.001277253143320
        0.000000000000000
       -0.000310121078444
       -0.003049036677010
       -0.019466550215506
       -0.077452007210955
       -0.102160711462105
       -0.048917616480509
       -0.014233671416416
       -0.002935035584541
        0.000000000000000
       -0.000160169878635
       -0.001723216681276
       -0.012890746326910
       -0.062082516509738
       -0.132165355284331
       -0.075821480223895
       -0.019853183674372
       -0.003694881286999
       -0.000466563062931
        0.000000000000000
        0.000246107043758
       -0.000590994043314
       -0.009351290719937
       -0.035743285271528
       -0.038675791615946
       -0.012120990950772
       -0.002484150831042
       -0.000347295696903
        0.000000000000000
        0.000645762366853
        0.002036326544509
        0.002869129003046
       -0.001150173476175
       -0.005821328729159
       -0.003114011265540
       -0.000879583889827
        0.000000000000000
        0.000000000000000
        0.000000000000000
        0.000899074353856
        0.001557365027165
        0.001195673466978
        0.000039584629283
       -0.000332091386498
       -0.000140521292113
        0.000000000000000
        0.000000000000000
        0.000000000000000
        0.000000000000000
        0.000000000000000
        0.000301972301550
        0.000157751566540
        0.000000000000000
        0.000000000000000
        0.000000000000000
        0.000000000000000
        0.000000000000000
        0.000000000000000
        0.000000000000000
        0.000000000000000
        0.000000000000000
        0.000000000000000
        0.000000000000000
        0.000000000000000
        0.000000000000000
        0.000000000000000
       -0.001542177531278
       -0.003380995511573
       -0.003859421974326
       -0.002281441992668
        0.000000000000000
        0.000000000000000
        0.000000000000000
        0.000000000000000
       -0.001311351873333
       -0.005604560612033
       -0.013022086865722
       -0.015387479686510
       -0.009386072242689
       -0.003204848260512
        0.000000000000000
        0.000000000000000
        0.000000000000000
       -0.002368421062161
       -0.010903672965891
       -0.030344911673107
       -0.038987011250423
       -0.022807974561045
       -0.008063362484581
       -0.001725116886983
        0.000000000000000
        0.000000000000000
       -0.001984594138244
       -0.009732202866468
       -0.030456105636379
       -0.049819241642556
       -0.032248524867338
       -0.011184232700045
       -0.002544263202197
        0.000000000000000
        0.000000000000000
       -0.000721313586319
       -0.003931219386178
       -0.012741584593349
       -0.023717619253293
       -0.019797520619863
       -0.007813844070288
       -0.001911397071979
        0.000000000000000
        0.000000000000000
        0.000000000000000
       -0.000612651841066
       -0.002608509628070
       -0.005528955880003
       -0.005695430170458
       -0.002798646879990
       -0.000742776398863
        0.000000000000000
        0.000000000000000
        0.000000000000000
        0.000000000000000
       -0.000164988480635
       -0.000669435366115
       -0.000898822622567
       -0.000511950740918
        0.000000000000000
        0.000000000000000
        0.000000000000000
        0.000000000000000
        0.000000000000000
        0.000000000000000
        0.000000000000000
        0.000000000000000
        0.000000000000000
        0.000000000000000
        0.000000000000000
        0.000000000000000
        0.000000000000000
        0.000000000000000
        0.000000000000000
        0.000000000000000
        0.000000000000000
        0.000000000000000
        0.000000000000000
        0.000000000000000
        0.000000000000000
        0.000000000000000
        0.000000000000000
       -0.001097973173778
       -0.001207569611365
        0.000000000000000
        0.000000000000000
        0.000000000000000
        0.000000000000000
        0.000000000000000
        0.000000000000000
       -0.001709945457002
       -0.003778922165180
       -0.004395110943056
       -0.002655845765373
        0.000000000000000
        0.000000000000000
        0.000000000000000
        0.000000000000000
       -0.000843061647628
       -0.003313840219096
       -0.007407065027578
       -0.009211151985287
       -0.006184377674376
       -0.002352832646691
        0.000000000000000
        0.000000000000000
        0.000000000000000
       -0.000795269645077
       -0.003257317663059
       -0.007894236660953
       -0.010880256861908
       -0.008049582879439
       -0.003442385583667
       -0.000858204842790
        0.000000000000000
        0.000000000000000
        0.000000000000000
       -0.001610845604182
       -0.004358515002446
       -0.006732667555105
       -0.005559479230660
       -0.002578550690309
       -0.000706058344622
        0.000000000000000
        0.000000000000000
        0.000000000000000
        0.000000000000000
       -0.001307832485500
       -0.002304592303670
       -0.002113468744225
       -0.001024051798919
        0.000000000000000
        0.000000000000000
        0.000000000000000
        0.000000000000000
        0.000000000000000
        0.000000000000000
       -0.000445904876501
       -0.000451146818473
        0.000000000000000
        0.000000000000000
        0.000000000000000
        0.000000000000000
        0.000000000000000
        0.000000000000000
        0.000000000000000
        0.000000000000000
        0.000000000000000
        0.000000000000000
        0.000000000000000
        0.000000000000000
        0.000000000000000
        0.000000000000000
        0.000000000000000
        0.000000000000000
        0.000000000000000
        0.000000000000000
        0.000000000000000
        0.000000000000000
        0.000000000000000
        0.000000000000000
        0.000000000000000
        0.000000000000000
        0.000000000000000
        0.000000000000000
        0.000000000000000
        0.000000000000000
        0.000000000000000
        0.000000000000000
        0.000000000000000
        0.000000000000000
        0.000000000000000
        0.000000000000000
        0.000000000000000
        0.000000000000000
        0.000000000000000
        0.000000000000000
        0.000000000000000
        0.000000000000000
        0.000000000000000
        0.000000000000000
       -0.001182245089483
       -0.001394872544278
        0.000000000000000
        0.000000000000000
        0.000000000000000
        0.000000000000000
        0.000000000000000
        0.000000000000000
        0.000000000000000
       -0.001267719455576
       -0.001875019769518
       -0.001248127200187
        0.000000000000000
        0.000000000000000
        0.000000000000000
        0.000000000000000
        0.000000000000000
        0.000000000000000
        0.000000000000000
       -0.001120974111485
       -0.000962727154293
        0.000000000000000
        0.000000000000000
        0.000000000000000
        0.000000000000000
        0.000000000000000
        0.000000000000000
        0.000000000000000
        0.000000000000000
        0.000000000000000
        0.000000000000000
        0.000000000000000
        0.000000000000000
        0.000000000000000
        0.000000000000000
        0.000000000000000
        0.000000000000000
        0.000000000000000
        0.000000000000000
        0.000000000000000
        0.000000000000000
        0.000000000000000
        0.000000000000000
        0.000000000000000
        0.000000000000000
        0.000000000000000
        0.000000000000000
        0.000000000000000
        0.000000000000000
        0.000000000000000
        0.000000000000000
END_DATAGRID_3D
END_BLOCK_DATAGRID_3D
