ATOMS
         C    7.558905    7.558905    7.558905
         H    8.755769    8.755769    8.755769
         H    6.362040    6.362040    8.755769
         H    8.755769    6.362040    6.362040
         H    6.362040    8.755769    6.362040
BEGIN_BLOCK_DATAGRID_3D
units: coords = b, function = sqrt(b^-3)
BEGIN_DATAGRID_3D_function
      9      9      9
0.0 0.0 0.0
   15.117809    0.000000    0.000000
    0.000000   15.117809    0.000000
    0.000000    0.000000   15.117809
        0.000000000000000
        0.000000000000000
        0.000000000000000
        0.000000000000000
        0.000000000000000
        0.000000000000000
        0.000000000000000
        0.000000000000000
        0.000000000000000
        0.000000000000000
        0.000000000000000
        0.000000000000000
        0.000000000000000
        0.000000000000000
        0.000000000000000
        0.000000000000000
        0.000000000000000
        0.000000000000000
        0.000000000000000
        0.000000000000000
        0.000000000000000
        0.000000000000000
        0.000000000000000
        0.000000000000000
        0.000000000000000
        0.000000000000000
        0.000000000000000
        0.000000000000000
        0.000000000000000
        0.000000000000000
        0.000000000000000
       -0.000384602072985
       -0.000182623903686
        0.000000000000000
        0.000000000000000
        0.000000000000000
        0.000000000000000
        0.000000000000000
        0.000000000000000
       -0.000446940845464
       -0.000400797039883
       -0.000090836893641
        0.000000000000000
        0.000000000000000
        0.000000000000000
        0.000000000000000
        0.000000000000000
        0.000000000000000
       -0.000275877142497
       -0.000153175666120
        0.000000000000000
        0.000000000000000
        0.000000000000000
        0.000000000000000
        0.000000000000000
        0.000000000000000
        0.000000000000000
        0.000000000000000
        0.000000000000000
        0.000000000000000
        0.000000000000000
        0.000000000000000
        0.000000000000000
        0.000000000000000
        0.000000000000000
        0.000000000000000
        0.000000000000000
        0.000000000000000
        0.000000000000000
        0.000000000000000
        0.000000000000000
        0.000000000000000
        0.000000000000000
        0.000000000000000
        0.000000000000000
        0.000000000000000
        0.000000000000000
        0.000000000000000
        0.000000000000000
        0.000000000000000
        0.000000000000000
        0.000000000000000
        0.000000000000000
        0.000000000000000
        0.000000000000000
        0.000000000000000
        0.000000000000000
        0.000000000000000
        0.000000000000000
        0.000000000000000
        0.000000000000000
        0.000000000000000
        0.000000000000000
        0.000000000000000
       -0.000578787316536
       -0.000376786919434
        0.000000000000000
        0.000000000000000
        0.000000000000000
        0.000000000000000
        0.000000000000000
        0.000000000000000
       -0.001566414856935
       -0.001828025307661
       -0.000912048650358
       -0.000146517418987
        0.000000000000000
        0.000000000000000
        0.000000000000000
        0.000000000000000
       -0.001695137617992
       -0.003235973832454
       -0.002978574593673
       -0.000993403679308
        0.000162442600270
        0.000212141992638
        0.000000000000000
        0.000000000000000
       -0.000727200684983
       -0.002232751807040
       -0.003472019838269
       -0.002325722008008
        0.000063930078309
        0.000800648917761
        0.000373760315429
        0.000000000000000
        0.000000000000000
       -0.000543275945149
       -0.001421977498363
       -0.001778275126803
       -0.000429515166286
        0.000982365499695
        0.000847876945959
        0.000000000000000
        0.000000000000000
        0.000000000000000
        0.000000000000000
       -0.000437891356341
       -0.000347486247735
        0.000395922418382
        0.000719154184902
        0.000000000000000
        0.000000000000000
        0.000000000000000
        0.000000000000000
        0.000000000000000
        0.000000000000000
        0.000045652966923
        0.000225346946982
        0.000000000000000
        0.000000000000000
        0.000000000000000
        0.000000000000000
        0.000000000000000
        0.000000000000000
        0.000000000000000
        0.000000000000000
        0.000000000000000
        0.000000000000000
        0.000000000000000
        0.000000000000000
        0.000000000000000
        0.000000000000000
        0.000000000000000
        0.000000000000000
        0.000000000000000
        0.000000000000000
        0.000000000000000
        0.000000000000000
        0.000000000000000
        0.000000000000000
        0.000000000000000
        0.000000000000000
        0.000000000000000
       -0.001945506966918
       -0.002370422249827
       -0.001314958198102
       -0.000316386158532
        0.000000000000000
        0.000000000000000
        0.000000000000000
        0.000000000000000
       -0.003402417431238
       -0.007302254462540
       -0.007875488148619
       -0.003341351747664
       -0.000302129727721
        0.000216896528467
        0.000000000000000
        0.000000000000000
       -0.002181838990960
       -0.007864153738987
       -0.015427793657360
       -0.015125054865281
       -0.003118812690786
        0.001552876505536
        0.001024419616204
        0.000000000000000
        0.000000000000000
       -0.002929113797948
       -0.009661066145563
       -0.017987625886468
       -0.010649170160312
        0.004584124386695
        0.005190049041507
        0.001961042609788
        0.000000000000000
        0.000000000000000
       -0.001939257138072
       -0.005553861211946
       -0.007599441464324
        0.001721553365508
        0.007828856136886
        0.005300237887759
        0.001658899388979
        0.000000000000000
        0.000000000000000
       -0.000655979115446
       -0.001494107700320
       -0.000659632958746
        0.003404471044562
        0.004738338611312
        0.002586403240167
        0.000000000000000
        0.000000000000000
        0.000000000000000
        0.000000000000000
       -0.000122696428447
        0.000400120676234
        0.001402351061667
        0.001422567364937
        0.000000000000000
        0.000000000000000
        0.000000000000000
        0.000000000000000
        0.000000000000000
        0.000000000000000
        0.000000000000000
        0.000000000000000
        0.000000000000000
        0.000000000000000
        0.000000000000000
        0.000000000000000
        0.000000000000000
        0.000000000000000
        0.000000000000000
        0.000000000000000
       -0.000856606787377
       -0.000554297238510
        0.000000000000000
        0.000000000000000
        0.000000000000000
        0.000000000000000
        0.000000000000000
       -0.002527701685119
       -0.005198326903640
       -0.005608479912277
       -0.002850665845940
       -0.000582729088822
        0.000024548030910
        0.000000000000000
        0.000000000000000
       -0.002635310948103
       -0.009843644875709
       -0.020606014246006
       -0.022610888977516
       -0.007754847049652
       -0.000006102258789
        0.000682157474857
        0.000000000000000
        0.000000000000000
       -0.005755361360818
       -0.022075906355177
       -0.051933239104837
       -0.055441203512008
       -0.004175270011326
        0.006799430956690
        0.002979987641802
        0.000612526952995
       -0.001052929038021
       -0.006848451306059
       -0.027598392357950
       -0.066630351308181
       -0.028251159819315
        0.037152521486117
        0.020599175372617
        0.005690299449325
        0.000918961006398
       -0.000753053843331
       -0.004162740597476
       -0.013551462696535
       -0.020647763203891
        0.025963373689945
        0.039477900818377
        0.018907042682320
        0.005180586301310
        0.000000000000000
        0.000000000000000
       -0.001304182719717
       -0.002661144161544
        0.001002815309808
        0.015611671992183
        0.017437150573150
        0.008973224264065
        0.002500325899926
        0.000000000000000
        0.000000000000000
       -0.000195191504193
       -0.000039296156039
        0.001667912890266
        0.004450328055543
        0.004623551844133
        0.002392716636942
        0.000000000000000
        0.000000000000000
        0.000000000000000
        0.000000000000000
        0.000000000000000
        0.000413770348174
        0.000722638755754
        0.000000000000000
        0.000000000000000
        0.000000000000000
        0.000000000000000
        0.000000000000000
        0.000000000000000
        0.000000000000000
       -0.001138556178287
       -0.001337763580477
       -0.000656415845400
        0.000000000000000
        0.000000000000000
        0.000000000000000
        0.000000000000000
       -0.001250039848026
       -0.004200942573649
       -0.007840262487207
       -0.007762697552697
       -0.003535116834963
       -0.000579070495641
        0.000070341379201
        0.000000000000000
        0.000000000000000
       -0.004354907622392
       -0.015951403163311
       -0.035557890077543
       -0.035544354336876
       -0.009179756094958
        0.001028229451138
        0.001123720138552
        0.000000000000000
       -0.001272539656452
       -0.008586788636394
       -0.037682822436790
       -0.106048125664583
       -0.094295538518846
        0.007658259364721
        0.014321129003199
        0.004721157854656
        0.000825386769031
       -0.001603731339285
       -0.009306039964261
       -0.042611112917559
       -0.113042926630967
       -0.000000000000000
        0.113042926630967
        0.042611112917559
        0.009306039964261
        0.001603731339285
       -0.000879300122667
       -0.005050189213396
       -0.015949348643174
       -0.011903143420570
        0.094295538518848
        0.110293009720433
        0.039311042076766
        0.008915819995133
        0.001326453010088
        0.000000000000000
       -0.001375444790611
       -0.001938724593997
        0.007551536454983
        0.035544354336877
        0.037186109717519
        0.016861898306170
        0.004606632274450
        0.000000000000000
        0.000000000000000
       -0.000164200629866
        0.000327345843582
        0.003206085476224
        0.007762697552697
        0.008169293845947
        0.004452667225708
        0.001343899098690
        0.000000000000000
        0.000000000000000
        0.000000000000000
        0.000000000000000
        0.000602502491765
        0.001337763580477
        0.001192469531922
        0.000000000000000
        0.000000000000000
        0.000000000000000
        0.000000000000000
        0.000000000000000
        0.000000000000000
       -0.000976068358433
       -0.000938365236310
        0.000000000000000
        0.000000000000000
        0.000000000000000
        0.000000000000000
        0.000000000000000
       -0.001129793074782
       -0.003621293763994
       -0.006400527637622
       -0.005766899409893
       -0.002323672642827
       -0.000300249515688
        0.000000000000000
        0.000000000000000
        0.000000000000000
       -0.003735663855960
       -0.013348216994280
       -0.028020092952880
       -0.022126757194985
       -0.004757401282667
        0.001285913885024
        0.000889865037315
        0.000000000000000
       -0.001081571724443
       -0.006927730941664
       -0.029336079826225
       -0.078678011045823
       -0.042948662787854
        0.010360332411172
        0.011499005851413
        0.003836901229974
        0.000000000000000
       -0.001098910741098
       -0.006788526543730
       -0.026033778722015
       -0.051320917776972
        0.028251159819316
        0.080798747599037
        0.033032995707348
        0.007946678400464
        0.001232878772721
        0.000000000000000
       -0.003262126170466
       -0.008330142178556
        0.002095005875290
        0.072426492609919
        0.103501044261041
        0.036088111566070
        0.008110483897338
        0.001222098614779
        0.000000000000000
       -0.000754879989138
       -0.000415493273380
        0.007926264955524
        0.029125974180319
        0.034772124692726
        0.016015463414613
        0.004357689100820
        0.000000000000000
        0.000000000000000
        0.000000000000000
        0.000435234563865
        0.002898447702334
        0.006925051266627
        0.007583280593296
        0.004243319008855
        0.001300436548065
        0.000000000000000
        0.000000000000000
        0.000000000000000
        0.000000000000000
        0.000000000000000
        0.001072333267933
        0.001116595248769
        0.000000000000000
        0.000000000000000
        0.000000000000000
        0.000000000000000
        0.000000000000000
        0.000000000000000
        0.000000000000000
        0.000000000000000
        0.000000000000000
        0.000000000000000
        0.000000000000000
        0.000000000000000
        0.000000000000000
        0.000000000000000
       -0.001634228985667
       -0.002889064654714
       -0.002409590819463
       -0.000882444233889
        0.000000000000000
        0.000000000000000
        0.000000000000000
        0.000000000000000
       -0.001682448005228
       -0.005693276360669
       -0.010012967505405
       -0.007047685563554
       -0.001255476528145
        0.000678759426463
        0.000000000000000
        0.000000000000000
        0.000000000000000
       -0.003100589437604
       -0.010455499943878
       -0.019417836178749
       -0.008236638568310
        0.004850893153597
        0.004958900261330
        0.001731291548262
        0.000000000000000
        0.000000000000000
       -0.002801238615054
       -0.008229061611745
       -0.010018727736093
        0.010649170160312
        0.023422229235866
        0.012700078715801
        0.003769309803214
        0.000000000000000
        0.000000000000000
       -0.001208351946281
       -0.002394984410102
        0.002748044366878
        0.021640140068084
        0.030136090333859
        0.014456484650288
        0.004015426959473
        0.000000000000000
        0.000000000000000
        0.000000000000000
        0.000137254764607
        0.003819392379373
        0.011518702667611
        0.014013952211815
        0.007489513788709
        0.002121530592206
        0.000000000000000
        0.000000000000000
        0.000000000000000
        0.000000000000000
        0.001405383835870
        0.003377662007623
        0.003803902176582
        0.002073311572646
        0.000000000000000
        0.000000000000000
        0.000000000000000
        0.000000000000000
        0.000000000000000
        0.000000000000000
        0.000000000000000
        0.000000000000000
        0.000000000000000
        0.000000000000000
        0.000000000000000
        0.000000000000000
        0.000000000000000
        0.000000000000000
        0.000000000000000
        0.000000000000000
        0.000000000000000
        0.000000000000000
        0.000000000000000
        0.000000000000000
        0.000000000000000
        0.000000000000000
        0.000000000000000
       -0.000728458124438
       -0.000600911152289
        0.000000000000000
        0.000000000000000
        0.000000000000000
        0.000000000000000
        0.000000000000000
        0.000000000000000
       -0.001319034057773
       -0.002141457730745
       -0.001403162176178
       -0.000179031053854
        0.000000000000000
        0.000000000000000
        0.000000000000000
        0.000000000000000
       -0.000781708633826
       -0.002238612421670
       -0.002954339620553
       -0.000887056188064
        0.001317513701610
        0.001244590175295
        0.000000000000000
        0.000000000000000
        0.000000000000000
       -0.000687039792909
       -0.001640844923027
       -0.001162157172714
        0.002325722008008
        0.004570246932674
        0.003072947812306
        0.001040480162463
        0.000000000000000
        0.000000000000000
        0.000000000000000
       -0.000397329503261
        0.000936094631149
        0.004295145948024
        0.005726018426664
        0.003498147319763
        0.001112842586338
        0.000000000000000
        0.000000000000000
        0.000000000000000
        0.000000000000000
        0.001026291725887
        0.002835265065457
        0.003400992628838
        0.001903442833102
        0.000000000000000
        0.000000000000000
        0.000000000000000
        0.000000000000000
        0.000000000000000
        0.000000000000000
        0.000954351521842
        0.001059592076949
        0.000000000000000
        0.000000000000000
        0.000000000000000
        0.000000000000000
        0.000000000000000
        0.000000000000000
        0.000000000000000
        0.000000000000000
        0.000000000000000
        0.000000000000000
        0.000000000000000
        0.000000000000000
        0.000000000000000
        0.000000000000000
        0.000000000000000
        0.000000000000000
        0.000000000000000
        0.000000000000000
        0.000000000000000
        0.000000000000000
        0.000000000000000
        0.000000000000000
        0.000000000000000
        0.000000000000000
        0.000000000000000
        0.000000000000000
        0.000000000000000
        0.000000000000000
        0.000000000000000
        0.000000000000000
        0.000000000000000
        0.000000000000000
        0.000000000000000
        0.000000000000000
        0.000000000000000
        0.000000000000000
        0.000000000000000
        0.000000000000000
        0.000000000000000
        0.000000000000000
        0.000000000000000
        0.000000000000000
       -0.000286420867763
       -0.000062550814436
        0.000000000000000
        0.000000000000000
        0.000000000000000
        0.000000000000000
        0.000000000000000
        0.000000000000000
        0.000000000000000
       -0.000089112841058
        0.000400797039883
        0.000626890580163
        0.000000000000000
        0.000000000000000
        0.000000000000000
        0.000000000000000
        0.000000000000000
        0.000000000000000
        0.000000000000000
        0.000600328553542
        0.000744921913945
        0.000000000000000
        0.000000000000000
        0.000000000000000
        0.000000000000000
        0.000000000000000
        0.000000000000000
        0.000000000000000
        0.000000000000000
        0.000000000000000
        0.000000000000000
        0.000000000000000
        0.000000000000000
        0.000000000000000
        0.000000000000000
        0.000000000000000
        0.000000000000000
        0.000000000000000
        0.000000000000000
        0.000000000000000
        0.000000000000000
        0.000000000000000
        0.000000000000000
        0.000000000000000
        0.000000000000000
        0.000000000000000
        0.000000000000000
        0.000000000000000
        0.000000000000000
        0.000000000000000
        0.000000000000000
END_DATAGRID_3D
END_BLOCK_DATAGRID_3D
