ATOMS
         C    7.558905    7.558905    7.558905
         H    8.755769    8.755769    8.755769
         H    6.362040    6.362040    8.755769
         H    8.755769    6.362040    6.362040
         H    6.362040    8.755769    6.362040
BEGIN_BLOCK_DATAGRID_3D
units: coords = b, function = sqrt(b^-3)
BEGIN_DATAGRID_3D_function
      9      9      9
0.0 0.0 0.0
   15.117809    0.000000    0.000000
    0.000000   15.117809    0.000000
    0.000000    0.000000   15.117809
        0.000000000000000
        0.000000000000000
        0.000000000000000
        0.000000000000000
        0.000000000000000
        0.000000000000000
        0.000000000000000
        0.000000000000000
        0.000000000000000
        0.000000000000000
        0.000000000000000
        0.000000000000000
        0.000000000000000
        0.000000000000000
        0.000000000000000
        0.000000000000000
        0.000000000000000
        0.000000000000000
        0.000000000000000
        0.000000000000000
        0.000000000000000
        0.000000000000000
        0.000000000000000
        0.000000000000000
        0.000000000000000
        0.000000000000000
        0.000000000000000
        0.000000000000000
        0.000000000000000
        0.000000000000000
        0.000000000000000
       -0.000934523617248
       -0.001001426250696
        0.000000000000000
        0.000000000000000
        0.000000000000000
        0.000000000000000
        0.000000000000000
        0.000000000000000
       -0.000298971670437
       -0.000919709992211
       -0.000935068282523
        0.000000000000000
        0.000000000000000
        0.000000000000000
        0.000000000000000
        0.000000000000000
        0.000000000000000
       -0.000050697272312
       -0.000299516335713
        0.000000000000000
        0.000000000000000
        0.000000000000000
        0.000000000000000
        0.000000000000000
        0.000000000000000
        0.000000000000000
        0.000000000000000
        0.000000000000000
        0.000000000000000
        0.000000000000000
        0.000000000000000
        0.000000000000000
        0.000000000000000
        0.000000000000000
        0.000000000000000
        0.000000000000000
        0.000000000000000
        0.000000000000000
        0.000000000000000
        0.000000000000000
        0.000000000000000
        0.000000000000000
        0.000000000000000
        0.000000000000000
        0.000000000000000
        0.000000000000000
        0.000000000000000
        0.000000000000000
        0.000000000000000
        0.000000000000000
        0.000000000000000
        0.000000000000000
        0.000000000000000
        0.000000000000000
        0.000000000000000
        0.000000000000000
        0.000000000000000
        0.000000000000000
        0.000000000000000
        0.000000000000000
        0.000000000000000
        0.000000000000000
        0.000000000000000
       -0.001161184069060
       -0.001228069708903
        0.000000000000000
        0.000000000000000
        0.000000000000000
        0.000000000000000
        0.000000000000000
        0.000000000000000
       -0.001626040166183
       -0.003703808013619
       -0.004043528559756
       -0.002155819874492
        0.000000000000000
        0.000000000000000
        0.000000000000000
        0.000000000000000
       -0.000313694764829
       -0.002581769824276
       -0.006422825048974
       -0.007181022802876
       -0.004045520756635
       -0.001229161632490
        0.000000000000000
        0.000000000000000
        0.000351909652523
        0.000422431634308
       -0.001392086178509
       -0.005336840238378
       -0.006428466107762
       -0.003708681796057
       -0.001162950172244
        0.000000000000000
        0.000000000000000
        0.000469307704991
        0.001155262805496
        0.000820844359631
       -0.001397727237297
       -0.002589590979122
       -0.001630516465633
        0.000000000000000
        0.000000000000000
        0.000000000000000
        0.000000000000000
        0.000814775563480
        0.001153270608617
        0.000417557851869
       -0.000318171064280
        0.000000000000000
        0.000000000000000
        0.000000000000000
        0.000000000000000
        0.000000000000000
        0.000000000000000
        0.000468215781404
        0.000350143549339
        0.000000000000000
        0.000000000000000
        0.000000000000000
        0.000000000000000
        0.000000000000000
        0.000000000000000
        0.000000000000000
        0.000000000000000
        0.000000000000000
        0.000000000000000
        0.000000000000000
        0.000000000000000
        0.000000000000000
        0.000000000000000
        0.000000000000000
        0.000000000000000
        0.000000000000000
        0.000000000000000
        0.000000000000000
        0.000000000000000
        0.000000000000000
        0.000000000000000
        0.000000000000000
        0.000000000000000
        0.000000000000000
       -0.001801371947904
       -0.003954669004300
       -0.004229876012045
       -0.002234384919711
        0.000000000000000
        0.000000000000000
        0.000000000000000
        0.000000000000000
       -0.000930703037497
       -0.005794347434522
       -0.014219815612788
       -0.015864409588093
       -0.008137101051599
       -0.002235373670531
        0.000000000000000
        0.000000000000000
        0.000608063977769
       -0.000065710747342
       -0.008697090789480
       -0.029952396510134
       -0.035137901082414
       -0.015873483897675
       -0.004234213414679
        0.000000000000000
        0.000000000000000
        0.001741264472643
        0.003984385833783
       -0.000768110181575
       -0.024436677995566
       -0.029988938981159
       -0.014244040214335
       -0.003962699903360
        0.000000000000000
        0.000000000000000
        0.002134933414114
        0.006692414061820
        0.010542695867346
       -0.000804652652600
       -0.008740210568359
       -0.005817713512107
       -0.001808054819531
        0.000000000000000
        0.000000000000000
        0.001227809735507
        0.004015270432703
        0.006683339752238
        0.003960161232236
       -0.000089076824928
       -0.000941806813207
        0.000000000000000
        0.000000000000000
        0.000000000000000
        0.000000000000000
        0.001226820984688
        0.002130596011480
        0.001733233573583
        0.000601381106141
        0.000000000000000
        0.000000000000000
        0.000000000000000
        0.000000000000000
        0.000000000000000
        0.000000000000000
        0.000000000000000
        0.000000000000000
        0.000000000000000
        0.000000000000000
        0.000000000000000
        0.000000000000000
        0.000000000000000
        0.000000000000000
        0.000000000000000
        0.000000000000000
       -0.001152827890472
       -0.001173326816011
        0.000000000000000
        0.000000000000000
        0.000000000000000
        0.000000000000000
        0.000000000000000
       -0.000698759337375
       -0.003489366820561
       -0.007639167919544
       -0.008040014789843
       -0.004390165966851
       -0.001315924671560
        0.000000000000000
        0.000000000000000
        0.000398331186944
       -0.000981234174926
       -0.011092040771399
       -0.033414627978423
       -0.037282087529065
       -0.016594518488518
       -0.004392511172606
        0.000000000000000
        0.000000000000000
        0.002189672397270
        0.003893701719747
       -0.014205906347101
       -0.090773000798939
       -0.112450351232110
       -0.037309072380922
       -0.008050825310333
       -0.001175490205905
        0.000848703157343
        0.005002502777020
        0.017433621948629
        0.023301825865337
       -0.064828008672334
       -0.090944677329431
       -0.033494743061061
       -0.007660116803927
       -0.001156119942050
        0.000853022791341
        0.005336759078785
        0.021815167883335
        0.055488873443524
        0.023130149334844
       -0.014375390265701
       -0.011165301292269
       -0.003508610195955
        0.000000000000000
        0.000000000000000
        0.002965148252778
        0.010473981307939
        0.021788183031478
        0.017353506865990
        0.003820441198877
       -0.001016122228179
       -0.000708081722137
        0.000000000000000
        0.000000000000000
        0.000924348657102
        0.002962803047023
        0.005325948558296
        0.004981553892636
        0.002170429021876
        0.000389008802182
        0.000000000000000
        0.000000000000000
        0.000000000000000
        0.000000000000000
        0.000000000000000
        0.000850859401447
        0.000845411105765
        0.000000000000000
        0.000000000000000
        0.000000000000000
        0.000000000000000
        0.000000000000000
        0.000000000000000
        0.000000000000000
       -0.000618846828415
       -0.001353061171644
       -0.001196651055428
        0.000000000000000
        0.000000000000000
        0.000000000000000
        0.000000000000000
        0.000110094221403
       -0.000487865321995
       -0.003412417771959
       -0.007851465534759
       -0.008093041262935
       -0.004346808142282
       -0.001303282775576
        0.000000000000000
        0.000000000000000
        0.001081828507022
        0.001075077072399
       -0.008894435274602
       -0.035950811059785
       -0.036354794731483
       -0.016168900227939
       -0.004349965258904
        0.000000000000000
        0.000747132272589
        0.004198514054140
        0.012769528323890
        0.005070930451346
       -0.095373826654510
       -0.104585904334950
       -0.036398367343096
       -0.008108349088531
       -0.001199398441730
        0.001358514949881
        0.007883112405396
        0.036095717849717
        0.095758249555041
       -0.000000000000000
       -0.095758249555039
       -0.036095717849716
       -0.007883112405396
       -0.001358514949881
        0.001075683331292
        0.007353319988336
        0.032662087572075
        0.094845158038316
        0.095373826654511
        0.004669815845290
       -0.009033248552869
       -0.003443484953945
       -0.000623417162151
        0.000000000000000
        0.003772332056194
        0.014079584695590
        0.032618514960462
        0.035950811059785
        0.012630715045623
        0.001014238459951
       -0.000504195304313
        0.000000000000000
        0.000000000000000
        0.001087903713088
        0.003769174939573
        0.007338012162740
        0.007851465534759
        0.004167446872154
        0.001065498524704
        0.000105284841084
        0.000000000000000
        0.000000000000000
        0.000000000000000
        0.000000000000000
        0.001072935944990
        0.001353061171644
        0.000742561938853
        0.000000000000000
        0.000000000000000
        0.000000000000000
        0.000000000000000
        0.000000000000000
        0.000000000000000
       -0.000374538814255
       -0.000662669993372
        0.000000000000000
        0.000000000000000
        0.000000000000000
        0.000000000000000
        0.000000000000000
        0.000198040931982
        0.000138069281110
       -0.001316967921191
       -0.003866291115351
       -0.004118648278654
       -0.002161530044814
        0.000000000000000
        0.000000000000000
        0.000000000000000
        0.001304087342018
        0.003087489953159
        0.001098054010924
       -0.011834602027662
       -0.014561410431008
       -0.007674356162451
       -0.002163736616991
        0.000000000000000
        0.000701081814713
        0.004057938784930
        0.014514712473565
        0.028649626516777
       -0.008741973084667
       -0.027842394758187
       -0.014591551172998
       -0.004130070499203
        0.000000000000000
        0.000974112446538
        0.006549331265456
        0.027997993947337
        0.076614262624323
        0.064828008672332
       -0.008971411160229
       -0.011936872834904
       -0.003891717238548
       -0.000666695661832
        0.000000000000000
        0.005449008297888
        0.021863150745521
        0.056423691370989
        0.076384824548760
        0.028311851271810
        0.000979192024022
       -0.001343872553382
       -0.000378614400149
        0.000000000000000
        0.002473487152184
        0.009671712565557
        0.021833010003531
        0.027895723140095
        0.014395850486663
        0.003033047227421
        0.000123275577810
        0.000000000000000
        0.000000000000000
        0.000000000000000
        0.002471280580007
        0.005437586077339
        0.006523905142258
        0.004031034152739
        0.001289293638717
        0.000193535082477
        0.000000000000000
        0.000000000000000
        0.000000000000000
        0.000000000000000
        0.000000000000000
        0.000970086778078
        0.000697006228820
        0.000000000000000
        0.000000000000000
        0.000000000000000
        0.000000000000000
        0.000000000000000
        0.000000000000000
        0.000000000000000
        0.000000000000000
        0.000000000000000
        0.000000000000000
        0.000000000000000
        0.000000000000000
        0.000000000000000
        0.000000000000000
        0.000261464105485
       -0.000022220673695
       -0.000880004459977
       -0.001058917434285
        0.000000000000000
        0.000000000000000
        0.000000000000000
        0.000000000000000
        0.000753063322731
        0.002073136308631
        0.002357381052733
       -0.000874007542752
       -0.002861242902856
       -0.001824100535332
        0.000000000000000
        0.000000000000000
        0.000000000000000
        0.002134302180682
        0.006869057199278
        0.012343541175057
        0.006323557490928
       -0.002000758663772
       -0.002872764878523
       -0.001063763519597
        0.000000000000000
        0.000000000000000
        0.003112896090573
        0.011170275934206
        0.024492189867435
        0.024436677995565
        0.006264859295299
       -0.000910621553653
       -0.000891460659857
        0.000000000000000
        0.000000000000000
        0.002263754361359
        0.008756189137973
        0.019438060021611
        0.024433491671806
        0.012251664040011
        0.002312012636577
       -0.000035022180116
        0.000000000000000
        0.000000000000000
        0.000000000000000
        0.003696610386036
        0.008744667162305
        0.011133661923304
        0.006823688783122
        0.002048694310265
        0.000254500612292
        0.000000000000000
        0.000000000000000
        0.000000000000000
        0.000000000000000
        0.002258908276047
        0.003101439890694
        0.002121500674260
        0.000746099829538
        0.000000000000000
        0.000000000000000
        0.000000000000000
        0.000000000000000
        0.000000000000000
        0.000000000000000
        0.000000000000000
        0.000000000000000
        0.000000000000000
        0.000000000000000
        0.000000000000000
        0.000000000000000
        0.000000000000000
        0.000000000000000
        0.000000000000000
        0.000000000000000
        0.000000000000000
        0.000000000000000
        0.000000000000000
        0.000000000000000
        0.000000000000000
        0.000000000000000
        0.000000000000000
        0.000110185969324
       -0.000032004485113
        0.000000000000000
        0.000000000000000
        0.000000000000000
        0.000000000000000
        0.000000000000000
        0.000000000000000
        0.000673509526693
        0.000955104729168
        0.000435671261737
       -0.000139365263864
        0.000000000000000
        0.000000000000000
        0.000000000000000
        0.000000000000000
        0.000653081884093
        0.001945609522638
        0.003188136277473
        0.002512990014583
        0.000641371722343
       -0.000142004776999
        0.000000000000000
        0.000000000000000
        0.000000000000000
        0.000846088281968
        0.002858877983270
        0.005317680569290
        0.005336840238378
        0.002502871716981
        0.000427372178479
       -0.000035047762248
        0.000000000000000
        0.000000000000000
        0.000000000000000
        0.002086216007462
        0.004529989081054
        0.005307562271688
        0.003172042165772
        0.000944648428502
        0.000106772043406
        0.000000000000000
        0.000000000000000
        0.000000000000000
        0.000000000000000
        0.002083576494327
        0.002850578900012
        0.001935153221971
        0.000667534784320
        0.000000000000000
        0.000000000000000
        0.000000000000000
        0.000000000000000
        0.000000000000000
        0.000000000000000
        0.000843045004834
        0.000649667958175
        0.000000000000000
        0.000000000000000
        0.000000000000000
        0.000000000000000
        0.000000000000000
        0.000000000000000
        0.000000000000000
        0.000000000000000
        0.000000000000000
        0.000000000000000
        0.000000000000000
        0.000000000000000
        0.000000000000000
        0.000000000000000
        0.000000000000000
        0.000000000000000
        0.000000000000000
        0.000000000000000
        0.000000000000000
        0.000000000000000
        0.000000000000000
        0.000000000000000
        0.000000000000000
        0.000000000000000
        0.000000000000000
        0.000000000000000
        0.000000000000000
        0.000000000000000
        0.000000000000000
        0.000000000000000
        0.000000000000000
        0.000000000000000
        0.000000000000000
        0.000000000000000
        0.000000000000000
        0.000000000000000
        0.000000000000000
        0.000000000000000
        0.000000000000000
        0.000000000000000
        0.000000000000000
        0.000000000000000
        0.000527017859504
        0.000482257448107
        0.000000000000000
        0.000000000000000
        0.000000000000000
        0.000000000000000
        0.000000000000000
        0.000000000000000
        0.000000000000000
        0.000753060787012
        0.000919709992211
        0.000480979165949
        0.000000000000000
        0.000000000000000
        0.000000000000000
        0.000000000000000
        0.000000000000000
        0.000000000000000
        0.000000000000000
        0.000751782504854
        0.000525105663505
        0.000000000000000
        0.000000000000000
        0.000000000000000
        0.000000000000000
        0.000000000000000
        0.000000000000000
        0.000000000000000
        0.000000000000000
        0.000000000000000
        0.000000000000000
        0.000000000000000
        0.000000000000000
        0.000000000000000
        0.000000000000000
        0.000000000000000
        0.000000000000000
        0.000000000000000
        0.000000000000000
        0.000000000000000
        0.000000000000000
        0.000000000000000
        0.000000000000000
        0.000000000000000
        0.000000000000000
        0.000000000000000
        0.000000000000000
        0.000000000000000
        0.000000000000000
        0.000000000000000
        0.000000000000000
END_DATAGRID_3D
END_BLOCK_DATAGRID_3D
