ATOMS
         C    7.558905    7.558905    7.558905
         H    8.755769    8.755769    8.755769
         H    6.362040    6.362040    8.755769
         H    8.755769    6.362040    6.362040
         H    6.362040    8.755769    6.362040
BEGIN_BLOCK_DATAGRID_3D
units: coords = b, function = sqrt(b^-3)
BEGIN_DATAGRID_3D_function
      9      9      9
0.0 0.0 0.0
   15.117809    0.000000    0.000000
    0.000000   15.117809    0.000000
    0.000000    0.000000   15.117809
        0.000000000000000
        0.000000000000000
        0.000000000000000
        0.000000000000000
        0.000000000000000
        0.000000000000000
        0.000000000000000
        0.000000000000000
        0.000000000000000
        0.000000000000000
        0.000000000000000
        0.000000000000000
        0.000000000000000
        0.000000000000000
        0.000000000000000
        0.000000000000000
        0.000000000000000
        0.000000000000000
        0.000000000000000
        0.000000000000000
        0.000000000000000
        0.000000000000000
        0.000000000000000
        0.000000000000000
        0.000000000000000
        0.000000000000000
        0.000000000000000
        0.000000000000000
        0.000000000000000
        0.000000000000000
        0.000000000000000
        0.000047374689652
        0.000219471963651
        0.000000000000000
        0.000000000000000
        0.000000000000000
        0.000000000000000
        0.000000000000000
        0.000000000000000
       -0.000154030674768
        0.000125540560160
        0.000327960912056
        0.000000000000000
        0.000000000000000
        0.000000000000000
        0.000000000000000
        0.000000000000000
        0.000000000000000
       -0.000073600910007
        0.000126555547636
        0.000000000000000
        0.000000000000000
        0.000000000000000
        0.000000000000000
        0.000000000000000
        0.000000000000000
        0.000000000000000
        0.000000000000000
        0.000000000000000
        0.000000000000000
        0.000000000000000
        0.000000000000000
        0.000000000000000
        0.000000000000000
        0.000000000000000
        0.000000000000000
        0.000000000000000
        0.000000000000000
        0.000000000000000
        0.000000000000000
        0.000000000000000
        0.000000000000000
        0.000000000000000
        0.000000000000000
        0.000000000000000
        0.000000000000000
        0.000000000000000
        0.000000000000000
        0.000000000000000
        0.000000000000000
        0.000000000000000
        0.000000000000000
        0.000000000000000
        0.000000000000000
        0.000000000000000
        0.000000000000000
        0.000000000000000
        0.000000000000000
        0.000000000000000
        0.000000000000000
        0.000000000000000
        0.000000000000000
        0.000000000000000
        0.000000000000000
       -0.000154582130735
        0.000062916236403
        0.000000000000000
        0.000000000000000
        0.000000000000000
        0.000000000000000
        0.000000000000000
        0.000000000000000
       -0.000791143294493
       -0.000311124978858
        0.000545022379371
        0.000584403461080
        0.000000000000000
        0.000000000000000
        0.000000000000000
        0.000000000000000
       -0.001232630677460
       -0.001616382233398
       -0.000011084990295
        0.001790234162451
        0.001576697832554
        0.000600575886293
        0.000000000000000
        0.000000000000000
       -0.000657123800006
       -0.001686818027677
       -0.001681971482311
        0.000793760650717
        0.002838105867940
        0.002170171026623
        0.000776074186026
        0.000000000000000
        0.000000000000000
       -0.000494040219827
       -0.001167457035857
       -0.000855633042140
        0.001167219375924
        0.002396026238361
        0.001518449735431
        0.000000000000000
        0.000000000000000
        0.000000000000000
        0.000000000000000
       -0.000397452655501
       -0.000135781582674
        0.000794477977804
        0.001076962352464
        0.000000000000000
        0.000000000000000
        0.000000000000000
        0.000000000000000
        0.000000000000000
        0.000000000000000
        0.000043619430063
        0.000273532516754
        0.000000000000000
        0.000000000000000
        0.000000000000000
        0.000000000000000
        0.000000000000000
        0.000000000000000
        0.000000000000000
        0.000000000000000
        0.000000000000000
        0.000000000000000
        0.000000000000000
        0.000000000000000
        0.000000000000000
        0.000000000000000
        0.000000000000000
        0.000000000000000
        0.000000000000000
        0.000000000000000
        0.000000000000000
        0.000000000000000
        0.000000000000000
        0.000000000000000
        0.000000000000000
        0.000000000000000
        0.000000000000000
       -0.001170574869793
       -0.000894005806115
        0.000134397419822
        0.000411867091807
        0.000000000000000
        0.000000000000000
        0.000000000000000
        0.000000000000000
       -0.002641169275977
       -0.004495623044401
       -0.002237158391636
        0.002143025234337
        0.002319830980285
        0.000877387656855
        0.000000000000000
        0.000000000000000
       -0.001981832029661
       -0.006485904740684
       -0.009641996174400
       -0.002002079835340
        0.009516164765854
        0.006768246352103
        0.002273980521677
        0.000000000000000
        0.000000000000000
       -0.002837737277369
       -0.008440656578642
       -0.012049934832108
        0.003738361053045
        0.016689080229726
        0.009944532806362
        0.003159961591510
        0.000000000000000
        0.000000000000000
       -0.001978250852103
       -0.005453849476119
       -0.005933112565304
        0.006641225232957
        0.012276649972855
        0.007376358834159
        0.002162762904932
        0.000000000000000
        0.000000000000000
       -0.000738131949420
       -0.001743528603717
       -0.000828628358353
        0.003741034619356
        0.005386077137876
        0.002926382144491
        0.000000000000000
        0.000000000000000
        0.000000000000000
        0.000000000000000
       -0.000272611384372
        0.000161332249751
        0.001216230120256
        0.001351505745064
        0.000000000000000
        0.000000000000000
        0.000000000000000
        0.000000000000000
        0.000000000000000
        0.000000000000000
        0.000000000000000
        0.000000000000000
        0.000000000000000
        0.000000000000000
        0.000000000000000
        0.000000000000000
        0.000000000000000
        0.000000000000000
        0.000000000000000
        0.000000000000000
       -0.000426484633131
       -0.000157849269625
        0.000000000000000
        0.000000000000000
        0.000000000000000
        0.000000000000000
        0.000000000000000
       -0.002065085359725
       -0.003693172270354
       -0.002808113404552
       -0.000233171852821
        0.000783701931042
        0.000401302533273
        0.000000000000000
        0.000000000000000
       -0.002434855136626
       -0.008528190958985
       -0.015110955216718
       -0.010165164408184
        0.004480999632373
        0.005053995857792
        0.001891609579714
        0.000000000000000
        0.000000000000000
       -0.005717079184350
       -0.020440653366815
       -0.041599662410216
       -0.019229368226813
        0.033752038543628
        0.018066384139540
        0.005226182111322
        0.000860201559074
       -0.001089683025531
       -0.007204805127487
       -0.028168240208459
       -0.061046349478904
        0.010844711954584
        0.071631821674277
        0.030550822995554
        0.007587742851504
        0.001132621941965
       -0.000818635315648
       -0.004850921313806
       -0.015875228014135
       -0.025367212152388
        0.029814840422187
        0.046091899675417
        0.021563495253578
        0.005922625652349
        0.000000000000000
        0.000000000000000
       -0.001701580636781
       -0.004213477885795
       -0.002289843506969
        0.012547747195279
        0.016233797103482
        0.008854085579986
        0.002490554551197
        0.000000000000000
        0.000000000000000
       -0.000349853004122
       -0.000593672988110
        0.000608432650338
        0.003191051128568
        0.003898718738354
        0.002120784774295
        0.000000000000000
        0.000000000000000
        0.000000000000000
        0.000000000000000
        0.000000000000000
        0.000199415513051
        0.000469423549565
        0.000000000000000
        0.000000000000000
        0.000000000000000
        0.000000000000000
        0.000000000000000
        0.000000000000000
        0.000000000000000
       -0.000834557928437
       -0.000782741979959
       -0.000249892373006
        0.000000000000000
        0.000000000000000
        0.000000000000000
        0.000000000000000
       -0.001172796494577
       -0.003681337699557
       -0.006193545360842
       -0.004949076079966
       -0.001014921105684
        0.000667644890390
        0.000431144071244
        0.000000000000000
        0.000000000000000
       -0.004249376121992
       -0.014806247377292
       -0.030523417084694
       -0.023308579543708
        0.001598471639120
        0.005429619978195
        0.002240316282534
        0.000000000000000
       -0.001296350956416
       -0.008919350591761
       -0.038478637888201
       -0.103955976122003
       -0.067616484238765
        0.037955844734855
        0.023623298977792
        0.006531744292137
        0.001028627979686
       -0.001667896126548
       -0.010545677931065
       -0.049666800212185
       -0.144079754299899
       -0.000000000000000
        0.144079754299900
        0.049666800212185
        0.010545677931065
        0.001667896126548
       -0.001014436638376
       -0.006440721572132
       -0.023155726569738
       -0.036679592572203
        0.067616484238766
        0.102679723959354
        0.038011065480147
        0.008828327871757
        0.001282159615106
        0.000000000000000
       -0.002172314156178
       -0.005173823858784
       -0.001130899231065
        0.023308579543708
        0.030055844676641
        0.014550451257881
        0.004181373995635
        0.000000000000000
        0.000000000000000
       -0.000407544455306
       -0.000599642764034
        0.001105943825689
        0.004949076079966
        0.006102522640838
        0.003613335573200
        0.001149196878639
        0.000000000000000
        0.000000000000000
        0.000000000000000
        0.000000000000000
        0.000264083714316
        0.000782741979959
        0.000820366587127
        0.000000000000000
        0.000000000000000
        0.000000000000000
        0.000000000000000
        0.000000000000000
        0.000000000000000
       -0.000751652784552
       -0.000657965668312
        0.000000000000000
        0.000000000000000
        0.000000000000000
        0.000000000000000
        0.000000000000000
       -0.001065549517669
       -0.003335307173819
       -0.005594040726514
       -0.004400353061975
       -0.001167886907082
        0.000283011302860
        0.000000000000000
        0.000000000000000
        0.000000000000000
       -0.003735476030517
       -0.013249224649543
       -0.026821232702622
       -0.018759781037391
       -0.001316039597336
        0.002976233891894
        0.001306756047661
        0.000000000000000
       -0.001119365956917
       -0.007565922982907
       -0.031728183017973
       -0.086031203163433
       -0.046770763160336
        0.013590685176769
        0.013439764725706
        0.004435502543862
        0.000000000000000
       -0.001221104569261
       -0.008155267036407
       -0.033466124249479
       -0.079589219215303
       -0.010844711954583
        0.069003747019931
        0.031083541462385
        0.007772329312390
        0.001178165652827
        0.000000000000000
       -0.004641049011862
       -0.014562606612469
       -0.018082922441969
        0.036185290964964
        0.077646376772194
        0.029537026892569
        0.007190662185391
        0.001077799713491
        0.000000000000000
       -0.001362455462231
       -0.003302128512896
        0.000193197710573
        0.016377198250297
        0.024630076577218
        0.012408706677546
        0.003545447087584
        0.000000000000000
        0.000000000000000
        0.000000000000000
       -0.000338710717430
        0.000962340439082
        0.004017415337958
        0.005218779928997
        0.003145278230887
        0.001014099988518
        0.000000000000000
        0.000000000000000
        0.000000000000000
        0.000000000000000
        0.000000000000000
        0.000615026751878
        0.000710086541126
        0.000000000000000
        0.000000000000000
        0.000000000000000
        0.000000000000000
        0.000000000000000
        0.000000000000000
        0.000000000000000
        0.000000000000000
        0.000000000000000
        0.000000000000000
        0.000000000000000
        0.000000000000000
        0.000000000000000
        0.000000000000000
       -0.001577500282600
       -0.002686002662599
       -0.002119687003051
       -0.000611499187072
        0.000000000000000
        0.000000000000000
        0.000000000000000
        0.000000000000000
       -0.001745643207245
       -0.005913060632227
       -0.010338254026087
       -0.007139469007461
       -0.001056334022689
        0.000862874793896
        0.000000000000000
        0.000000000000000
        0.000000000000000
       -0.003458805815195
       -0.012008853059219
       -0.023177963644287
       -0.012853259075069
        0.002641107533291
        0.004453960637722
        0.001634547693925
        0.000000000000000
        0.000000000000000
       -0.003583953000801
       -0.011539414657434
       -0.019604381483651
       -0.003738361053044
        0.014965236086035
        0.010035538429714
        0.003261728686660
        0.000000000000000
        0.000000000000000
       -0.001815478569196
       -0.005344414731197
       -0.005275761331746
        0.008214113677452
        0.019594911443738
        0.010694456183235
        0.003163076145621
        0.000000000000000
        0.000000000000000
        0.000000000000000
       -0.001148087662410
        0.000165879929214
        0.005635592779741
        0.009023857150103
        0.005336758255659
        0.001606387499810
        0.000000000000000
        0.000000000000000
        0.000000000000000
        0.000000000000000
        0.000430568311801
        0.001797462688911
        0.002390272993025
        0.001438244575165
        0.000000000000000
        0.000000000000000
        0.000000000000000
        0.000000000000000
        0.000000000000000
        0.000000000000000
        0.000000000000000
        0.000000000000000
        0.000000000000000
        0.000000000000000
        0.000000000000000
        0.000000000000000
        0.000000000000000
        0.000000000000000
        0.000000000000000
        0.000000000000000
        0.000000000000000
        0.000000000000000
        0.000000000000000
        0.000000000000000
        0.000000000000000
        0.000000000000000
        0.000000000000000
       -0.000727163220799
       -0.000587070292598
        0.000000000000000
        0.000000000000000
        0.000000000000000
        0.000000000000000
        0.000000000000000
        0.000000000000000
       -0.001452659011471
       -0.002388888830174
       -0.001697934860600
       -0.000336955794473
        0.000000000000000
        0.000000000000000
        0.000000000000000
        0.000000000000000
       -0.000921362301965
       -0.002761523126072
       -0.004129975034036
       -0.002376521309330
        0.000334805592910
        0.000885346341724
        0.000000000000000
        0.000000000000000
        0.000000000000000
       -0.000923217149877
       -0.002594162435914
       -0.003405630052843
       -0.000793760650717
        0.002249495667214
        0.002110809436968
        0.000804266763858
        0.000000000000000
        0.000000000000000
        0.000000000000000
       -0.001171165399695
       -0.001114449597874
        0.001220386923701
        0.003195373913725
        0.002352282329375
        0.000814826635499
        0.000000000000000
        0.000000000000000
        0.000000000000000
        0.000000000000000
        0.000051136736502
        0.001214581861653
        0.001979648033477
        0.001265708205892
        0.000000000000000
        0.000000000000000
        0.000000000000000
        0.000000000000000
        0.000000000000000
        0.000000000000000
        0.000468119906579
        0.000620627554333
        0.000000000000000
        0.000000000000000
        0.000000000000000
        0.000000000000000
        0.000000000000000
        0.000000000000000
        0.000000000000000
        0.000000000000000
        0.000000000000000
        0.000000000000000
        0.000000000000000
        0.000000000000000
        0.000000000000000
        0.000000000000000
        0.000000000000000
        0.000000000000000
        0.000000000000000
        0.000000000000000
        0.000000000000000
        0.000000000000000
        0.000000000000000
        0.000000000000000
        0.000000000000000
        0.000000000000000
        0.000000000000000
        0.000000000000000
        0.000000000000000
        0.000000000000000
        0.000000000000000
        0.000000000000000
        0.000000000000000
        0.000000000000000
        0.000000000000000
        0.000000000000000
        0.000000000000000
        0.000000000000000
        0.000000000000000
        0.000000000000000
        0.000000000000000
        0.000000000000000
        0.000000000000000
        0.000000000000000
       -0.000478636361494
       -0.000315097666382
        0.000000000000000
        0.000000000000000
        0.000000000000000
        0.000000000000000
        0.000000000000000
        0.000000000000000
        0.000000000000000
       -0.000416443539352
       -0.000125540560160
        0.000242513302064
        0.000000000000000
        0.000000000000000
        0.000000000000000
        0.000000000000000
        0.000000000000000
        0.000000000000000
        0.000000000000000
        0.000141167429094
        0.000332765307850
        0.000000000000000
        0.000000000000000
        0.000000000000000
        0.000000000000000
        0.000000000000000
        0.000000000000000
        0.000000000000000
        0.000000000000000
        0.000000000000000
        0.000000000000000
        0.000000000000000
        0.000000000000000
        0.000000000000000
        0.000000000000000
        0.000000000000000
        0.000000000000000
        0.000000000000000
        0.000000000000000
        0.000000000000000
        0.000000000000000
        0.000000000000000
        0.000000000000000
        0.000000000000000
        0.000000000000000
        0.000000000000000
        0.000000000000000
        0.000000000000000
        0.000000000000000
        0.000000000000000
        0.000000000000000
END_DATAGRID_3D
END_BLOCK_DATAGRID_3D
