ATOMS
         C    7.558905    7.558905    7.558905
         H    8.755769    8.755769    8.755769
         H    6.362040    6.362040    8.755769
         H    8.755769    6.362040    6.362040
         H    6.362040    8.755769    6.362040
BEGIN_BLOCK_DATAGRID_3D
units: coords = b, function = sqrt(b^-3)
BEGIN_DATAGRID_3D_function
      9      9      9
0.0 0.0 0.0
   15.117809    0.000000    0.000000
    0.000000   15.117809    0.000000
    0.000000    0.000000   15.117809
        0.000000000000000
        0.000000000000000
        0.000000000000000
        0.000000000000000
        0.000000000000000
        0.000000000000000
        0.000000000000000
        0.000000000000000
        0.000000000000000
        0.000000000000000
        0.000000000000000
        0.000000000000000
        0.000000000000000
        0.000000000000000
        0.000000000000000
        0.000000000000000
        0.000000000000000
        0.000000000000000
        0.000000000000000
        0.000000000000000
        0.000000000000000
        0.000000000000000
        0.000000000000000
        0.000000000000000
        0.000000000000000
        0.000000000000000
        0.000000000000000
        0.000000000000000
        0.000000000000000
        0.000000000000000
        0.000000000000000
        0.001272182331493
        0.001052126409299
        0.000000000000000
        0.000000000000000
        0.000000000000000
        0.000000000000000
        0.000000000000000
        0.000000000000000
        0.001297010629029
        0.001842069963052
        0.001255086202186
        0.000000000000000
        0.000000000000000
        0.000000000000000
        0.000000000000000
        0.000000000000000
        0.000000000000000
        0.001088255042355
        0.001279914499721
        0.000000000000000
        0.000000000000000
        0.000000000000000
        0.000000000000000
        0.000000000000000
        0.000000000000000
        0.000000000000000
        0.000000000000000
        0.000000000000000
        0.000000000000000
        0.000000000000000
        0.000000000000000
        0.000000000000000
        0.000000000000000
        0.000000000000000
        0.000000000000000
        0.000000000000000
        0.000000000000000
        0.000000000000000
        0.000000000000000
        0.000000000000000
        0.000000000000000
        0.000000000000000
        0.000000000000000
        0.000000000000000
        0.000000000000000
        0.000000000000000
        0.000000000000000
        0.000000000000000
        0.000000000000000
        0.000000000000000
        0.000000000000000
        0.000000000000000
        0.000000000000000
        0.000000000000000
        0.000000000000000
        0.000000000000000
        0.000000000000000
        0.000000000000000
        0.000000000000000
        0.000000000000000
        0.000000000000000
        0.000000000000000
        0.000000000000000
        0.000870062805726
        0.000763654907573
        0.000000000000000
        0.000000000000000
        0.000000000000000
        0.000000000000000
        0.000000000000000
        0.000000000000000
        0.002140076247303
        0.003536943201454
        0.002928293666369
        0.001311055224548
        0.000000000000000
        0.000000000000000
        0.000000000000000
        0.000000000000000
        0.002194500716750
        0.005842137715985
        0.008465852446877
        0.006693665738139
        0.002865433641384
        0.000730895284456
        0.000000000000000
        0.000000000000000
        0.000932013757849
        0.003706532112014
        0.008671831404243
        0.011646934271042
        0.008292251138459
        0.003385757740543
        0.000813357880603
        0.000000000000000
        0.000000000000000
        0.000832313856401
        0.003139400001925
        0.007019835690876
        0.008498230095825
        0.005597661513700
        0.001999352655288
        0.000000000000000
        0.000000000000000
        0.000000000000000
        0.000000000000000
        0.001432093787097
        0.003076539976939
        0.003555346651103
        0.002053777124734
        0.000000000000000
        0.000000000000000
        0.000000000000000
        0.000000000000000
        0.000000000000000
        0.000000000000000
        0.000799554233284
        0.000875308832726
        0.000000000000000
        0.000000000000000
        0.000000000000000
        0.000000000000000
        0.000000000000000
        0.000000000000000
        0.000000000000000
        0.000000000000000
        0.000000000000000
        0.000000000000000
        0.000000000000000
        0.000000000000000
        0.000000000000000
        0.000000000000000
        0.000000000000000
        0.000000000000000
        0.000000000000000
        0.000000000000000
        0.000000000000000
        0.000000000000000
        0.000000000000000
        0.000000000000000
        0.000000000000000
        0.000000000000000
        0.000000000000000
        0.001378955200602
        0.002367712978603
        0.002104600227660
        0.000964955768087
        0.000000000000000
        0.000000000000000
        0.000000000000000
        0.000000000000000
        0.002262094905841
        0.006771867624128
        0.011022014296754
        0.009315796549074
        0.003977617124429
        0.000936591582179
        0.000000000000000
        0.000000000000000
        0.001478963133363
        0.007017220106552
        0.019997029378137
        0.033985436999431
        0.025334995810234
        0.009033981648732
        0.001974235347090
        0.000000000000000
        0.000000000000000
        0.002607326970194
        0.011786752113886
        0.035224088880266
        0.054853368489501
        0.032846583898812
        0.010279783384208
        0.002120704589368
        0.000000000000000
        0.000000000000000
        0.002365037480825
        0.010252303211600
        0.027239509403427
        0.034085235779647
        0.018661525426575
        0.006048507312311
        0.001175854801967
        0.000000000000000
        0.000000000000000
        0.001106722192446
        0.004478528810839
        0.009970488311258
        0.011044521201341
        0.006293859794735
        0.001922863783964
        0.000000000000000
        0.000000000000000
        0.000000000000000
        0.000000000000000
        0.001078358006539
        0.002234672600256
        0.002360318580960
        0.001275862734729
        0.000000000000000
        0.000000000000000
        0.000000000000000
        0.000000000000000
        0.000000000000000
        0.000000000000000
        0.000000000000000
        0.000000000000000
        0.000000000000000
        0.000000000000000
        0.000000000000000
        0.000000000000000
        0.000000000000000
        0.000000000000000
        0.000000000000000
        0.000000000000000
        0.000321643875484
        0.000295238604726
        0.000000000000000
        0.000000000000000
        0.000000000000000
        0.000000000000000
        0.000000000000000
        0.000524637636439
        0.001676199218485
        0.002855151248295
        0.002634812958082
        0.001274722931259
        0.000331162755843
        0.000000000000000
        0.000000000000000
        0.000570221099753
        0.002920494569385
        0.009026566976924
        0.017610691514712
        0.015234702618546
        0.005595279612644
        0.001207218075675
        0.000000000000000
        0.000000000000000
        0.001925696858176
        0.009683586872217
        0.035629062203154
        0.077851466882053
        0.057871753432229
        0.014406944618763
        0.002302174311374
        0.000233208728634
        0.000403399826021
        0.003397154538929
        0.019830025263854
        0.083006465883868
        0.159125609476051
        0.072315291091755
        0.015129864838459
        0.002221731327349
        0.000226647451984
        0.000376697172649
        0.003204067197609
        0.017744121760159
        0.065159694101328
        0.077470290093570
        0.030286011957384
        0.006791991301245
        0.001090308281749
        0.000000000000000
        0.000000000000000
        0.001581096772047
        0.006737729795969
        0.016916363760376
        0.017349198587602
        0.007449011196539
        0.001861391792280
        0.000247062321702
        0.000000000000000
        0.000000000000000
        0.000423761645805
        0.001513591916463
        0.002871428550902
        0.002763734617983
        0.001339805921441
        0.000292645785016
        0.000000000000000
        0.000000000000000
        0.000000000000000
        0.000000000000000
        0.000000000000000
        0.000314667296557
        0.000308403402521
        0.000000000000000
        0.000000000000000
        0.000000000000000
        0.000000000000000
        0.000000000000000
        0.000000000000000
        0.000000000000000
       -0.000068093514484
        0.000020099935675
        0.000095940981287
        0.000000000000000
        0.000000000000000
        0.000000000000000
        0.000000000000000
       -0.000102400261957
       -0.000294376086334
       -0.000378163525641
        0.000127086720026
        0.000563268855372
        0.000371764335796
        0.000121445063927
        0.000000000000000
        0.000000000000000
       -0.000224351005303
       -0.000982309416421
       -0.001832806390533
        0.000598538166481
        0.002575566530853
        0.001223090685855
        0.000275941407472
        0.000000000000000
       -0.000011165861483
       -0.000042139192372
       -0.000852124522225
       -0.003068131145604
        0.001736315438024
        0.004762940456221
        0.001233592955220
        0.000103450242845
        0.000018040687094
        0.000129217538274
        0.000817009236959
        0.003847854524744
        0.011162344506561
        0.000000000000001
       -0.011162344506566
       -0.003847854524746
       -0.000817009236959
       -0.000129217538274
        0.000190190370095
        0.001232135788162
        0.005627146612355
        0.013963642977010
       -0.001736315438029
       -0.015658452287635
       -0.006008615045352
       -0.001293446838635
       -0.000197065195707
        0.000000000000000
        0.000721861009728
        0.002530232922304
        0.004285173036721
       -0.000598538166483
       -0.005027933177044
       -0.002771014191739
       -0.000773451411898
        0.000000000000000
        0.000000000000000
        0.000224834605395
        0.000626038081405
        0.000772317175634
       -0.000127086720026
       -0.000957422505366
       -0.000703426330867
       -0.000243879407365
        0.000000000000000
        0.000000000000000
        0.000000000000000
        0.000000000000000
        0.000112290075903
       -0.000020099935675
       -0.000140137542706
        0.000000000000000
        0.000000000000000
        0.000000000000000
        0.000000000000000
        0.000000000000000
        0.000000000000000
       -0.000271883612591
       -0.000293796408681
        0.000000000000000
        0.000000000000000
        0.000000000000000
        0.000000000000000
        0.000000000000000
       -0.000314105638682
       -0.001209200571961
       -0.002485176678171
       -0.002670045918563
       -0.001551372673746
       -0.000478875974449
        0.000000000000000
        0.000000000000000
        0.000000000000000
       -0.001159869654351
       -0.005384835333717
       -0.014661030502854
       -0.016867931374392
       -0.008604740183989
       -0.002777926542145
       -0.000541252781068
        0.000000000000000
       -0.000226553677724
       -0.002242092391380
       -0.014056124954434
       -0.056529283150933
       -0.076156657571436
       -0.034909823098649
       -0.009503811908105
       -0.001892787408196
        0.000000000000000
       -0.000224375317408
       -0.002207157943140
       -0.015055003173725
       -0.072110954052461
       -0.159125609476053
       -0.083210802923167
       -0.019904886928591
       -0.003411727923139
       -0.000405671960597
        0.000000000000000
       -0.001123217731730
       -0.006971766265359
       -0.031005251061893
       -0.079165099404193
       -0.066502164382630
       -0.018094941424491
       -0.003264149117604
       -0.000383352223559
        0.000000000000000
       -0.000276030640387
       -0.002003959819521
       -0.007870837989475
       -0.018091958727924
       -0.017490035876070
       -0.006948174074897
       -0.001628445193371
        0.000000000000000
        0.000000000000000
        0.000000000000000
       -0.000338407447006
       -0.001464632466180
       -0.002948839947716
       -0.003021064830813
       -0.001579114275761
       -0.000440818762966
        0.000000000000000
        0.000000000000000
        0.000000000000000
        0.000000000000000
        0.000000000000000
       -0.000336250869324
       -0.000338022288692
        0.000000000000000
        0.000000000000000
        0.000000000000000
        0.000000000000000
        0.000000000000000
        0.000000000000000
        0.000000000000000
        0.000000000000000
        0.000000000000000
        0.000000000000000
        0.000000000000000
        0.000000000000000
        0.000000000000000
        0.000000000000000
       -0.000935023615786
       -0.002039077868361
       -0.002290324729141
       -0.001333193538613
        0.000000000000000
        0.000000000000000
        0.000000000000000
        0.000000000000000
       -0.000914295753976
       -0.003885347019184
       -0.009105352270147
       -0.010781233027320
       -0.006629299596888
       -0.002216430299091
        0.000000000000000
        0.000000000000000
        0.000000000000000
       -0.001943810363129
       -0.008899408749348
       -0.024984176145905
       -0.033603968566436
       -0.019817254414025
       -0.006965042062176
       -0.001470045261334
        0.000000000000000
        0.000000000000000
       -0.002109816965768
       -0.010238828608003
       -0.032771722234077
       -0.054853368489502
       -0.035298950545002
       -0.011827706890093
       -0.002618214593794
        0.000000000000000
        0.000000000000000
       -0.001184772673997
       -0.006100685356688
       -0.018841300390689
       -0.034466704212643
       -0.027590329067758
       -0.010386876110985
       -0.002395462464787
        0.000000000000000
        0.000000000000000
        0.000000000000000
       -0.001968528390714
       -0.006436427821976
       -0.011285302470775
       -0.010180932590186
       -0.004570798916084
       -0.001129018020649
        0.000000000000000
        0.000000000000000
        0.000000000000000
        0.000000000000000
       -0.001321624396718
       -0.002437706830422
       -0.002300194959554
       -0.001108290158839
        0.000000000000000
        0.000000000000000
        0.000000000000000
        0.000000000000000
        0.000000000000000
        0.000000000000000
        0.000000000000000
        0.000000000000000
        0.000000000000000
        0.000000000000000
        0.000000000000000
        0.000000000000000
        0.000000000000000
        0.000000000000000
        0.000000000000000
        0.000000000000000
        0.000000000000000
        0.000000000000000
        0.000000000000000
        0.000000000000000
        0.000000000000000
        0.000000000000000
        0.000000000000000
       -0.000746597790412
       -0.000851018003755
        0.000000000000000
        0.000000000000000
        0.000000000000000
        0.000000000000000
        0.000000000000000
        0.000000000000000
       -0.001288759396345
       -0.002880945245045
       -0.003485352799285
       -0.002111107928618
        0.000000000000000
        0.000000000000000
        0.000000000000000
        0.000000000000000
       -0.000722657849279
       -0.002835008657422
       -0.006633583818145
       -0.008404541396405
       -0.005809228266005
       -0.002185582844721
        0.000000000000000
        0.000000000000000
        0.000000000000000
       -0.000809579414411
       -0.003374870116943
       -0.008277677754250
       -0.011646934271043
       -0.008686404788453
       -0.003717419735614
       -0.000935792224041
        0.000000000000000
        0.000000000000000
        0.000000000000000
       -0.002008270527317
       -0.005630570963680
       -0.008559541146298
       -0.007079917610870
       -0.003169824985886
       -0.000840551291578
        0.000000000000000
        0.000000000000000
        0.000000000000000
        0.000000000000000
       -0.002082745443420
       -0.003606937053273
       -0.003123888398264
       -0.001454389615301
        0.000000000000000
        0.000000000000000
        0.000000000000000
        0.000000000000000
        0.000000000000000
        0.000000000000000
       -0.000894353634696
       -0.000816611350445
        0.000000000000000
        0.000000000000000
        0.000000000000000
        0.000000000000000
        0.000000000000000
        0.000000000000000
        0.000000000000000
        0.000000000000000
        0.000000000000000
        0.000000000000000
        0.000000000000000
        0.000000000000000
        0.000000000000000
        0.000000000000000
        0.000000000000000
        0.000000000000000
        0.000000000000000
        0.000000000000000
        0.000000000000000
        0.000000000000000
        0.000000000000000
        0.000000000000000
        0.000000000000000
        0.000000000000000
        0.000000000000000
        0.000000000000000
        0.000000000000000
        0.000000000000000
        0.000000000000000
        0.000000000000000
        0.000000000000000
        0.000000000000000
        0.000000000000000
        0.000000000000000
        0.000000000000000
        0.000000000000000
        0.000000000000000
        0.000000000000000
        0.000000000000000
        0.000000000000000
        0.000000000000000
        0.000000000000000
       -0.001045471358389
       -0.001265307505882
        0.000000000000000
        0.000000000000000
        0.000000000000000
        0.000000000000000
        0.000000000000000
        0.000000000000000
        0.000000000000000
       -0.001252814067610
       -0.001842069963052
       -0.001299282763605
        0.000000000000000
        0.000000000000000
        0.000000000000000
        0.000000000000000
        0.000000000000000
        0.000000000000000
        0.000000000000000
       -0.001286789325333
       -0.001094910093265
        0.000000000000000
        0.000000000000000
        0.000000000000000
        0.000000000000000
        0.000000000000000
        0.000000000000000
        0.000000000000000
        0.000000000000000
        0.000000000000000
        0.000000000000000
        0.000000000000000
        0.000000000000000
        0.000000000000000
        0.000000000000000
        0.000000000000000
        0.000000000000000
        0.000000000000000
        0.000000000000000
        0.000000000000000
        0.000000000000000
        0.000000000000000
        0.000000000000000
        0.000000000000000
        0.000000000000000
        0.000000000000000
        0.000000000000000
        0.000000000000000
        0.000000000000000
        0.000000000000000
        0.000000000000000
END_DATAGRID_3D
END_BLOCK_DATAGRID_3D
