ATOMS
         C    7.558905    7.558905    7.558905
         H    8.755769    8.755769    8.755769
         H    6.362040    6.362040    8.755769
         H    8.755769    6.362040    6.362040
         H    6.362040    8.755769    6.362040
BEGIN_BLOCK_DATAGRID_3D
units: coords = b, function = sqrt(b^-3)
BEGIN_DATAGRID_3D_function
      9      9      9
0.0 0.0 0.0
   15.117809    0.000000    0.000000
    0.000000   15.117809    0.000000
    0.000000    0.000000   15.117809
        0.000000000000000
        0.000000000000000
        0.000000000000000
        0.000000000000000
        0.000000000000000
        0.000000000000000
        0.000000000000000
        0.000000000000000
        0.000000000000000
        0.000000000000000
        0.000000000000000
        0.000000000000000
        0.000000000000000
        0.000000000000000
        0.000000000000000
        0.000000000000000
        0.000000000000000
        0.000000000000000
        0.000000000000000
        0.000000000000000
        0.000000000000000
        0.000000000000000
        0.000000000000000
        0.000000000000000
        0.000000000000000
        0.000000000000000
        0.000000000000000
        0.000000000000000
        0.000000000000000
        0.000000000000000
        0.000000000000000
        0.000355595760902
        0.000427635788636
        0.000000000000000
        0.000000000000000
        0.000000000000000
        0.000000000000000
        0.000000000000000
        0.000000000000000
       -0.000202925036337
        0.000036616217258
        0.000253654994432
        0.000000000000000
        0.000000000000000
        0.000000000000000
        0.000000000000000
        0.000000000000000
        0.000000000000000
       -0.000385089808397
       -0.000304865802807
        0.000000000000000
        0.000000000000000
        0.000000000000000
        0.000000000000000
        0.000000000000000
        0.000000000000000
        0.000000000000000
        0.000000000000000
        0.000000000000000
        0.000000000000000
        0.000000000000000
        0.000000000000000
        0.000000000000000
        0.000000000000000
        0.000000000000000
        0.000000000000000
        0.000000000000000
        0.000000000000000
        0.000000000000000
        0.000000000000000
        0.000000000000000
        0.000000000000000
        0.000000000000000
        0.000000000000000
        0.000000000000000
        0.000000000000000
        0.000000000000000
        0.000000000000000
        0.000000000000000
        0.000000000000000
        0.000000000000000
        0.000000000000000
        0.000000000000000
        0.000000000000000
        0.000000000000000
        0.000000000000000
        0.000000000000000
        0.000000000000000
        0.000000000000000
        0.000000000000000
        0.000000000000000
        0.000000000000000
        0.000000000000000
        0.000000000000000
        0.000883210663553
        0.000885458979306
        0.000000000000000
        0.000000000000000
        0.000000000000000
        0.000000000000000
        0.000000000000000
        0.000000000000000
        0.001073383632802
        0.002428713016570
        0.002621545684016
        0.001388665150937
        0.000000000000000
        0.000000000000000
        0.000000000000000
        0.000000000000000
       -0.000150912878935
        0.000842579879820
        0.003002961238702
        0.003804947513088
        0.002246724049709
        0.000690119962514
        0.000000000000000
        0.000000000000000
       -0.000510396575136
       -0.001386245838136
       -0.001630603802133
        0.000231514917569
        0.001967811695653
        0.001527224645295
        0.000545090646691
        0.000000000000000
        0.000000000000000
       -0.000659046872638
       -0.002127361431736
       -0.003532353877798
       -0.002665753345181
       -0.000615182342062
        0.000234277272958
        0.000000000000000
        0.000000000000000
        0.000000000000000
        0.000000000000000
       -0.001334137504217
       -0.002502183066043
       -0.002287734209411
       -0.000990019238779
        0.000000000000000
        0.000000000000000
        0.000000000000000
        0.000000000000000
        0.000000000000000
        0.000000000000000
       -0.000854385889429
       -0.000848516591998
        0.000000000000000
        0.000000000000000
        0.000000000000000
        0.000000000000000
        0.000000000000000
        0.000000000000000
        0.000000000000000
        0.000000000000000
        0.000000000000000
        0.000000000000000
        0.000000000000000
        0.000000000000000
        0.000000000000000
        0.000000000000000
        0.000000000000000
        0.000000000000000
        0.000000000000000
        0.000000000000000
        0.000000000000000
        0.000000000000000
        0.000000000000000
        0.000000000000000
        0.000000000000000
        0.000000000000000
        0.000000000000000
        0.001756765069326
        0.003478520051577
        0.003361108474771
        0.001699414597115
        0.000000000000000
        0.000000000000000
        0.000000000000000
        0.000000000000000
        0.001052977129603
        0.005046127179062
        0.011033718685605
        0.011565400870503
        0.005718131959038
        0.001530284684741
        0.000000000000000
        0.000000000000000
       -0.000492946585568
       -0.000473158381851
        0.004365892837873
        0.018003864310601
        0.021943864427542
        0.009884995532715
        0.002583769019326
        0.000000000000000
        0.000000000000000
       -0.001911676252603
       -0.006169312440411
       -0.009860021040596
        0.001090361874525
        0.011213113264746
        0.006607945648772
        0.002005658910297
        0.000000000000000
        0.000000000000000
       -0.002497514012842
       -0.009501627468145
       -0.020898801241168
       -0.016650772086452
       -0.003597447518214
        0.000732875723424
        0.000545718408706
        0.000000000000000
        0.000000000000000
       -0.001489668192101
       -0.005550042753450
       -0.011182032805933
       -0.010595085477244
       -0.004786409837489
       -0.000969789541903
        0.000000000000000
        0.000000000000000
        0.000000000000000
        0.000000000000000
       -0.001658798104475
       -0.003274853468287
       -0.003384537393884
       -0.001703993246187
        0.000000000000000
        0.000000000000000
        0.000000000000000
        0.000000000000000
        0.000000000000000
        0.000000000000000
        0.000000000000000
        0.000000000000000
        0.000000000000000
        0.000000000000000
        0.000000000000000
        0.000000000000000
        0.000000000000000
        0.000000000000000
        0.000000000000000
        0.000000000000000
        0.001209047834464
        0.001107216359188
        0.000000000000000
        0.000000000000000
        0.000000000000000
        0.000000000000000
        0.000000000000000
        0.001348393224302
        0.004583016499239
        0.008040594952302
        0.007449235968250
        0.003674962271330
        0.001049024490004
        0.000000000000000
        0.000000000000000
        0.000322978081145
        0.003205134571376
        0.014215850853835
        0.032706121120552
        0.031012530838178
        0.012972474386944
        0.003272444450192
        0.000000000000000
        0.000000000000000
       -0.001029515750799
       -0.000564029852898
        0.016584886669541
        0.076030980218720
        0.083195117195679
        0.026076777052472
        0.005465778894818
        0.000737344735080
       -0.000630079419748
       -0.004151949041597
       -0.017218528491639
       -0.039932434033988
        0.003163060038263
        0.043019882020393
        0.017913452656824
        0.004263639883830
        0.000642603345808
       -0.000725221174393
       -0.005356327169634
       -0.025437685999903
       -0.080749528101476
       -0.072943532232315
       -0.015274642908761
        0.000891527375763
        0.001089467165060
        0.000000000000000
        0.000000000000000
       -0.003217019008002
       -0.012727321835194
       -0.030373439785610
       -0.032011196955367
       -0.013888353330970
       -0.003110081401066
       -0.000306732320712
        0.000000000000000
        0.000000000000000
       -0.001034018286951
       -0.003619536829140
       -0.007339784243066
       -0.007928904110070
       -0.004523065084977
       -0.001332147463869
        0.000000000000000
        0.000000000000000
        0.000000000000000
        0.000000000000000
        0.000000000000000
       -0.001095092798500
       -0.001196523908404
        0.000000000000000
        0.000000000000000
        0.000000000000000
        0.000000000000000
        0.000000000000000
        0.000000000000000
        0.000000000000000
        0.001022749689965
        0.001672493322494
        0.001294407092447
        0.000000000000000
        0.000000000000000
        0.000000000000000
        0.000000000000000
        0.000418364154684
        0.002206016396416
        0.006495040026168
        0.010574744817818
        0.008907368863826
        0.004233373885993
        0.001166332664184
        0.000000000000000
        0.000000000000000
        0.000630778946941
        0.005295538846335
        0.023411945925799
        0.049803696034966
        0.038392300364631
        0.014739603146854
        0.003662001115987
        0.000000000000000
       -0.000257856767008
       -0.001063938926898
        0.001351181664806
        0.037350649939513
        0.144476879067888
        0.103672550367893
        0.030390382946759
        0.006165563338402
        0.000829903370262
       -0.000782143380230
       -0.004945291287946
       -0.023290754373027
       -0.067564774722527
       -0.000000000000000
        0.067564774722527
        0.023290754373027
        0.004945291287946
        0.000782143380230
       -0.000825764204115
       -0.006139014885163
       -0.030254006839666
       -0.103300307911723
       -0.144476879067887
       -0.037722892395682
       -0.001487557771899
        0.001037390473658
        0.000253717600862
        0.000000000000000
       -0.003642167043003
       -0.014664995495988
       -0.038255924257538
       -0.049803696034966
       -0.023548322032892
       -0.005370146497201
       -0.000650613019924
        0.000000000000000
        0.000000000000000
       -0.001159449401410
       -0.004213539813009
       -0.008880820410587
       -0.010574744817818
       -0.006521588479407
       -0.002225850469399
       -0.000425247417458
        0.000000000000000
        0.000000000000000
        0.000000000000000
        0.000000000000000
       -0.001290267926301
       -0.001672493322494
       -0.001026888856111
        0.000000000000000
        0.000000000000000
        0.000000000000000
        0.000000000000000
        0.000000000000000
        0.000000000000000
        0.000836126595902
        0.001108108947949
        0.000000000000000
        0.000000000000000
        0.000000000000000
        0.000000000000000
        0.000000000000000
        0.000370279283569
        0.001777080470022
        0.005001832681735
        0.007361813937692
        0.005803661643332
        0.002459383842227
        0.000000000000000
        0.000000000000000
        0.000000000000000
        0.000667365098162
        0.004538360321623
        0.016722088729462
        0.029098125169879
        0.020883888062172
        0.008657792624597
        0.002087443541452
        0.000000000000000
       -0.000183585340645
       -0.000466429065263
        0.003114537560092
        0.028510343825846
        0.064992220088687
        0.043262200355608
        0.015522904940187
        0.003767874531035
        0.000000000000000
       -0.000453541551375
       -0.003051004770463
       -0.011684296683221
       -0.026017223938223
       -0.003163060038262
        0.022929775951819
        0.010989372518036
        0.002939313928231
        0.000441017625316
        0.000000000000000
       -0.003827825945296
       -0.015850402463052
       -0.044572444116388
       -0.068079668075091
       -0.030955932920048
       -0.003753628612660
        0.000356977340079
        0.000171461779958
        0.000000000000000
       -0.002103689301885
       -0.008752845794906
       -0.021211385585036
       -0.029793049335063
       -0.017361179782031
       -0.004783512873373
       -0.000722790540351
        0.000000000000000
        0.000000000000000
        0.000000000000000
       -0.002475629602661
       -0.005863613057593
       -0.007473504779924
       -0.005111284406919
       -0.001832505912212
       -0.000385285486622
        0.000000000000000
        0.000000000000000
        0.000000000000000
        0.000000000000000
        0.000000000000000
       -0.001120632874008
       -0.000848250156590
        0.000000000000000
        0.000000000000000
        0.000000000000000
        0.000000000000000
        0.000000000000000
        0.000000000000000
        0.000000000000000
        0.000000000000000
        0.000000000000000
        0.000000000000000
        0.000000000000000
        0.000000000000000
        0.000000000000000
        0.000000000000000
        0.000791206550076
        0.002090934266581
        0.002960870230831
        0.002051011997203
        0.000000000000000
        0.000000000000000
        0.000000000000000
        0.000000000000000
        0.000324926416014
        0.001959561013783
        0.005945433838064
        0.009001423307584
        0.006816800016910
        0.002746724078278
        0.000000000000000
        0.000000000000000
        0.000000000000000
       -0.000052139896999
        0.001312665954574
        0.007247450185021
        0.013737700300964
        0.010592982249416
        0.004814835500106
        0.001234992812033
        0.000000000000000
        0.000000000000000
       -0.001099711843459
       -0.003200144209242
       -0.004983957291143
       -0.001090361874525
        0.003630865066993
        0.002761511000880
        0.001005729185766
        0.000000000000000
        0.000000000000000
       -0.001287764635172
       -0.005074552841680
       -0.011361427569075
       -0.015090792525113
       -0.008292513371395
       -0.001696034019144
       -0.000034115109485
        0.000000000000000
        0.000000000000000
        0.000000000000000
       -0.002829911665978
       -0.007076517358484
       -0.009440056515945
       -0.006328801902634
       -0.002127650219371
       -0.000365542908654
        0.000000000000000
        0.000000000000000
        0.000000000000000
        0.000000000000000
       -0.002103783820342
       -0.003054852888525
       -0.002177189273065
       -0.000831823042716
        0.000000000000000
        0.000000000000000
        0.000000000000000
        0.000000000000000
        0.000000000000000
        0.000000000000000
        0.000000000000000
        0.000000000000000
        0.000000000000000
        0.000000000000000
        0.000000000000000
        0.000000000000000
        0.000000000000000
        0.000000000000000
        0.000000000000000
        0.000000000000000
        0.000000000000000
        0.000000000000000
        0.000000000000000
        0.000000000000000
        0.000000000000000
        0.000000000000000
        0.000000000000000
        0.000533844794267
        0.000701486155314
        0.000000000000000
        0.000000000000000
        0.000000000000000
        0.000000000000000
        0.000000000000000
        0.000000000000000
        0.000466545949818
        0.001318263864338
        0.001864067046358
        0.001337037989795
        0.000000000000000
        0.000000000000000
        0.000000000000000
        0.000000000000000
       -0.000004692130744
        0.000284905072618
        0.001194402316467
        0.002098663172803
        0.001895778900416
        0.000892959105401
        0.000000000000000
        0.000000000000000
        0.000000000000000
       -0.000230688671591
       -0.000621277578457
       -0.000755176582286
       -0.000231514917569
        0.000417968688766
        0.000480298771298
        0.000195994600035
        0.000000000000000
        0.000000000000000
        0.000000000000000
       -0.000976323499423
       -0.002123176438174
       -0.002435871066324
       -0.001466995951757
       -0.000404267690591
       -0.000026380959132
        0.000000000000000
        0.000000000000000
        0.000000000000000
        0.000000000000000
       -0.001420402383818
       -0.002005045853517
       -0.001437626482310
       -0.000521073596538
        0.000000000000000
        0.000000000000000
        0.000000000000000
        0.000000000000000
        0.000000000000000
        0.000000000000000
       -0.000736180226870
       -0.000564917884143
        0.000000000000000
        0.000000000000000
        0.000000000000000
        0.000000000000000
        0.000000000000000
        0.000000000000000
        0.000000000000000
        0.000000000000000
        0.000000000000000
        0.000000000000000
        0.000000000000000
        0.000000000000000
        0.000000000000000
        0.000000000000000
        0.000000000000000
        0.000000000000000
        0.000000000000000
        0.000000000000000
        0.000000000000000
        0.000000000000000
        0.000000000000000
        0.000000000000000
        0.000000000000000
        0.000000000000000
        0.000000000000000
        0.000000000000000
        0.000000000000000
        0.000000000000000
        0.000000000000000
        0.000000000000000
        0.000000000000000
        0.000000000000000
        0.000000000000000
        0.000000000000000
        0.000000000000000
        0.000000000000000
        0.000000000000000
        0.000000000000000
        0.000000000000000
        0.000000000000000
        0.000000000000000
        0.000000000000000
        0.000126123605799
        0.000216450842351
        0.000000000000000
        0.000000000000000
        0.000000000000000
        0.000000000000000
        0.000000000000000
        0.000000000000000
        0.000000000000000
       -0.000064593199999
       -0.000036616217258
        0.000013863241904
        0.000000000000000
        0.000000000000000
        0.000000000000000
        0.000000000000000
        0.000000000000000
        0.000000000000000
        0.000000000000000
       -0.000267180800447
       -0.000168669586038
        0.000000000000000
        0.000000000000000
        0.000000000000000
        0.000000000000000
        0.000000000000000
        0.000000000000000
        0.000000000000000
        0.000000000000000
        0.000000000000000
        0.000000000000000
        0.000000000000000
        0.000000000000000
        0.000000000000000
        0.000000000000000
        0.000000000000000
        0.000000000000000
        0.000000000000000
        0.000000000000000
        0.000000000000000
        0.000000000000000
        0.000000000000000
        0.000000000000000
        0.000000000000000
        0.000000000000000
        0.000000000000000
        0.000000000000000
        0.000000000000000
        0.000000000000000
        0.000000000000000
        0.000000000000000
END_DATAGRID_3D
END_BLOCK_DATAGRID_3D
