ATOMS
         C    7.558905    7.558905    7.558905
         H    8.755769    8.755769    8.755769
         H    6.362040    6.362040    8.755769
         H    8.755769    6.362040    6.362040
         H    6.362040    8.755769    6.362040
BEGIN_BLOCK_DATAGRID_3D
units: coords = b, function = 1/hbar/H*b^-2
BEGIN_DATAGRID_3D_function
      9      9      9
0.0 0.0 0.0
   15.117809    0.000000    0.000000
    0.000000   15.117809    0.000000
    0.000000    0.000000   15.117809
        0.000000000000000
        0.000000000000000
        0.000000000000000
        0.000000000000000
        0.000000000000000
        0.000000000000000
        0.000000000000000
        0.000000000000000
        0.000000000000000
        0.000000000000000
        0.000000000000000
        0.000000000000000
        0.000000000000000
        0.000000000000000
        0.000000000000000
        0.000000000000000
        0.000000000000000
        0.000000000000000
        0.000000000000000
        0.000000000000000
        0.000000000000000
        0.000000000000000
        0.000000000000000
        0.000000000000000
        0.000000000000000
        0.000000000000000
        0.000000000000000
        0.000000000000000
        0.000000000000000
        0.000000000000000
        0.000000000000000
       -0.000000000005323
        0.000000000003058
        0.000000000000000
        0.000000000000000
        0.000000000000000
        0.000000000000000
        0.000000000000000
        0.000000000000000
       -0.000000000001886
       -0.000000000002076
        0.000000000001916
        0.000000000000000
        0.000000000000000
        0.000000000000000
        0.000000000000000
        0.000000000000000
        0.000000000000000
       -0.000000000004542
        0.000000000005353
        0.000000000000000
        0.000000000000000
        0.000000000000000
        0.000000000000000
        0.000000000000000
        0.000000000000000
        0.000000000000000
        0.000000000000000
        0.000000000000000
        0.000000000000000
        0.000000000000000
        0.000000000000000
        0.000000000000000
        0.000000000000000
        0.000000000000000
        0.000000000000000
        0.000000000000000
        0.000000000000000
        0.000000000000000
        0.000000000000000
        0.000000000000000
        0.000000000000000
        0.000000000000000
        0.000000000000000
        0.000000000000000
        0.000000000000000
        0.000000000000000
        0.000000000000000
        0.000000000000000
        0.000000000000000
        0.000000000000000
        0.000000000000000
        0.000000000000000
        0.000000000000000
        0.000000000000000
        0.000000000000000
        0.000000000000000
        0.000000000000000
        0.000000000000000
        0.000000000000000
        0.000000000000000
        0.000000000000000
        0.000000000000000
        0.000000000000000
       -0.000000000003766
        0.000000000004651
        0.000000000000000
        0.000000000000000
        0.000000000000000
        0.000000000000000
        0.000000000000000
        0.000000000000000
       -0.000000000012124
        0.000000000005194
       -0.000000000003821
        0.000000000008163
        0.000000000000000
        0.000000000000000
        0.000000000000000
        0.000000000000000
       -0.000000000007465
       -0.000000000018173
       -0.000000000055314
        0.000000000032299
        0.000000000028322
       -0.000000000001720
        0.000000000000000
        0.000000000000000
        0.000000000001444
       -0.000000000006079
       -0.000000000108107
        0.000000000021011
        0.000000000109621
        0.000000000010935
       -0.000000000000423
        0.000000000000000
        0.000000000000000
        0.000000000003197
       -0.000000000031869
       -0.000000000028380
        0.000000000056801
        0.000000000022263
        0.000000000004867
        0.000000000000000
        0.000000000000000
        0.000000000000000
        0.000000000000000
       -0.000000000005101
        0.000000000000263
       -0.000000000000332
        0.000000000009525
        0.000000000000000
        0.000000000000000
        0.000000000000000
        0.000000000000000
        0.000000000000000
        0.000000000000000
       -0.000000000003174
        0.000000000004784
        0.000000000000000
        0.000000000000000
        0.000000000000000
        0.000000000000000
        0.000000000000000
        0.000000000000000
        0.000000000000000
        0.000000000000000
        0.000000000000000
        0.000000000000000
        0.000000000000000
        0.000000000000000
        0.000000000000000
        0.000000000000000
        0.000000000000000
        0.000000000000000
        0.000000000000000
        0.000000000000000
        0.000000000000000
        0.000000000000000
        0.000000000000000
        0.000000000000000
        0.000000000000000
        0.000000000000000
        0.000000000000000
       -0.000000000008624
       -0.000000000002139
        0.000000000002412
        0.000000000004781
        0.000000000000000
        0.000000000000000
        0.000000000000000
        0.000000000000000
       -0.000000000017595
        0.000000000003998
        0.000000000015116
       -0.000000000028017
       -0.000000000007691
        0.000000000002320
        0.000000000000000
        0.000000000000000
        0.000000000001034
       -0.000000000035260
        0.000000000455248
        0.000000000851432
       -0.000000000482110
       -0.000000000527185
        0.000000000035384
        0.000000000000000
        0.000000000000000
       -0.000000000011753
        0.000000000182105
        0.000000002050876
       -0.000000000384692
       -0.000000002091056
       -0.000000000191417
        0.000000000015925
        0.000000000000000
        0.000000000000000
       -0.000000000037715
        0.000000000554102
        0.000000000674757
       -0.000000000890574
       -0.000000000469394
        0.000000000038679
       -0.000000000003177
        0.000000000000000
        0.000000000000000
       -0.000000000000717
        0.000000000001123
        0.000000000055438
       -0.000000000024378
       -0.000000000000651
        0.000000000010366
        0.000000000000000
        0.000000000000000
        0.000000000000000
        0.000000000000000
       -0.000000000003187
       -0.000000000004809
        0.000000000006282
        0.000000000006473
        0.000000000000000
        0.000000000000000
        0.000000000000000
        0.000000000000000
        0.000000000000000
        0.000000000000000
        0.000000000000000
        0.000000000000000
        0.000000000000000
        0.000000000000000
        0.000000000000000
        0.000000000000000
        0.000000000000000
        0.000000000000000
        0.000000000000000
        0.000000000000000
       -0.000000000001808
        0.000000000000133
        0.000000000000000
        0.000000000000000
        0.000000000000000
        0.000000000000000
        0.000000000000000
       -0.000000000005560
       -0.000000000009566
        0.000000000006816
       -0.000000000005092
        0.000000000006464
       -0.000000000000056
        0.000000000000000
        0.000000000000000
       -0.000000000002544
       -0.000000000007949
        0.000000000090344
       -0.000000000045119
       -0.000000000138238
       -0.000000000023183
        0.000000000002004
        0.000000000000000
        0.000000000000000
       -0.000000000031819
        0.000000000407803
        0.000000001446299
       -0.000000002767859
       -0.000000004971877
       -0.000000000270858
        0.000000000024275
        0.000000000000251
        0.000000000000982
       -0.000000000106241
        0.000000001774553
        0.000000008797658
       -0.000000001806562
       -0.000000009532173
       -0.000000001752095
        0.000000000108595
       -0.000000000000254
       -0.000000000000397
       -0.000000000020000
        0.000000000308231
        0.000000004475284
        0.000000002039548
       -0.000000001564177
       -0.000000000405052
        0.000000000032431
        0.000000000000000
        0.000000000000000
       -0.000000000001600
        0.000000000033063
        0.000000000175312
        0.000000000069271
       -0.000000000087318
        0.000000000008116
        0.000000000000859
        0.000000000000000
        0.000000000000000
        0.000000000000001
       -0.000000000006071
        0.000000000009319
       -0.000000000004696
        0.000000000010115
        0.000000000003868
        0.000000000000000
        0.000000000000000
        0.000000000000000
        0.000000000000000
        0.000000000000000
       -0.000000000000279
        0.000000000002537
        0.000000000000000
        0.000000000000000
        0.000000000000000
        0.000000000000000
        0.000000000000000
        0.000000000000000
        0.000000000000000
        0.000000000000279
       -0.000000000006430
        0.000000000000133
        0.000000000000000
        0.000000000000000
        0.000000000000000
        0.000000000000000
       -0.000000000000001
       -0.000000000007785
        0.000000000001731
       -0.000000000004890
        0.000000000007738
       -0.000000000007333
       -0.000000000000056
        0.000000000000000
        0.000000000000000
       -0.000000000003334
        0.000000000015319
       -0.000000000056487
       -0.000000000147496
       -0.000000000057706
        0.000000000024933
       -0.000000000002898
        0.000000000000000
        0.000000000000397
       -0.000000000071787
        0.000000000916604
       -0.000000002326742
       -0.000000006042924
       -0.000000002867986
        0.000000000916684
       -0.000000000065860
        0.000000000000251
       -0.000000000000000
       -0.000000000000000
       -0.000000000000000
        0.000000000000000
       -0.000000000000000
       -0.000000000000000
        0.000000000000000
        0.000000000000000
       -0.000000000000000
       -0.000000000000397
        0.000000000071787
       -0.000000000916604
        0.000000002326742
        0.000000006042924
        0.000000002867986
       -0.000000000916684
        0.000000000065860
       -0.000000000000251
        0.000000000000000
        0.000000000003334
       -0.000000000015319
        0.000000000056487
        0.000000000147496
        0.000000000057706
       -0.000000000024933
        0.000000000002898
        0.000000000000000
        0.000000000000000
        0.000000000000001
        0.000000000007785
       -0.000000000001731
        0.000000000004890
       -0.000000000007738
        0.000000000007333
        0.000000000000056
        0.000000000000000
        0.000000000000000
        0.000000000000000
        0.000000000000000
       -0.000000000000279
        0.000000000006430
       -0.000000000000133
        0.000000000000000
        0.000000000000000
        0.000000000000000
        0.000000000000000
        0.000000000000000
        0.000000000000000
        0.000000000000279
       -0.000000000002537
        0.000000000000000
        0.000000000000000
        0.000000000000000
        0.000000000000000
        0.000000000000000
       -0.000000000000001
        0.000000000006071
       -0.000000000009319
        0.000000000004696
       -0.000000000010115
       -0.000000000003868
        0.000000000000000
        0.000000000000000
        0.000000000000000
        0.000000000001600
       -0.000000000033063
       -0.000000000175312
       -0.000000000069271
        0.000000000087318
       -0.000000000008116
       -0.000000000000859
        0.000000000000000
        0.000000000000397
        0.000000000020000
       -0.000000000308231
       -0.000000004475284
       -0.000000002039548
        0.000000001564177
        0.000000000405052
       -0.000000000032431
        0.000000000000000
       -0.000000000000982
        0.000000000106241
       -0.000000001774553
       -0.000000008797658
        0.000000001806562
        0.000000009532173
        0.000000001752095
       -0.000000000108595
        0.000000000000254
        0.000000000000000
        0.000000000031819
       -0.000000000407803
       -0.000000001446299
        0.000000002767859
        0.000000004971877
        0.000000000270858
       -0.000000000024275
       -0.000000000000251
        0.000000000000000
        0.000000000002544
        0.000000000007949
       -0.000000000090344
        0.000000000045119
        0.000000000138238
        0.000000000023183
       -0.000000000002004
        0.000000000000000
        0.000000000000000
        0.000000000000000
        0.000000000005560
        0.000000000009566
       -0.000000000006816
        0.000000000005092
       -0.000000000006464
        0.000000000000056
        0.000000000000000
        0.000000000000000
        0.000000000000000
        0.000000000000000
        0.000000000000000
        0.000000000001808
       -0.000000000000133
        0.000000000000000
        0.000000000000000
        0.000000000000000
        0.000000000000000
        0.000000000000000
        0.000000000000000
        0.000000000000000
        0.000000000000000
        0.000000000000000
        0.000000000000000
        0.000000000000000
        0.000000000000000
        0.000000000000000
        0.000000000000000
        0.000000000003187
        0.000000000004809
       -0.000000000006282
       -0.000000000006473
        0.000000000000000
        0.000000000000000
        0.000000000000000
        0.000000000000000
        0.000000000000717
       -0.000000000001123
       -0.000000000055438
        0.000000000024378
        0.000000000000651
       -0.000000000010366
        0.000000000000000
        0.000000000000000
        0.000000000000000
        0.000000000037715
       -0.000000000554102
       -0.000000000674757
        0.000000000890574
        0.000000000469394
       -0.000000000038679
        0.000000000003177
        0.000000000000000
        0.000000000000000
        0.000000000011753
       -0.000000000182105
       -0.000000002050876
        0.000000000384692
        0.000000002091056
        0.000000000191417
       -0.000000000015925
        0.000000000000000
        0.000000000000000
       -0.000000000001034
        0.000000000035260
       -0.000000000455248
       -0.000000000851432
        0.000000000482110
        0.000000000527185
       -0.000000000035384
        0.000000000000000
        0.000000000000000
        0.000000000000000
        0.000000000017595
       -0.000000000003998
       -0.000000000015116
        0.000000000028017
        0.000000000007691
       -0.000000000002320
        0.000000000000000
        0.000000000000000
        0.000000000000000
        0.000000000000000
        0.000000000008624
        0.000000000002139
       -0.000000000002412
       -0.000000000004781
        0.000000000000000
        0.000000000000000
        0.000000000000000
        0.000000000000000
        0.000000000000000
        0.000000000000000
        0.000000000000000
        0.000000000000000
        0.000000000000000
        0.000000000000000
        0.000000000000000
        0.000000000000000
        0.000000000000000
        0.000000000000000
        0.000000000000000
        0.000000000000000
        0.000000000000000
        0.000000000000000
        0.000000000000000
        0.000000000000000
        0.000000000000000
        0.000000000000000
        0.000000000000000
        0.000000000003174
       -0.000000000004784
        0.000000000000000
        0.000000000000000
        0.000000000000000
        0.000000000000000
        0.000000000000000
        0.000000000000000
        0.000000000005101
       -0.000000000000263
        0.000000000000332
       -0.000000000009525
        0.000000000000000
        0.000000000000000
        0.000000000000000
        0.000000000000000
       -0.000000000003197
        0.000000000031869
        0.000000000028380
       -0.000000000056801
       -0.000000000022263
       -0.000000000004867
        0.000000000000000
        0.000000000000000
        0.000000000000000
       -0.000000000001444
        0.000000000006079
        0.000000000108107
       -0.000000000021011
       -0.000000000109621
       -0.000000000010935
        0.000000000000423
        0.000000000000000
        0.000000000000000
        0.000000000000000
        0.000000000007465
        0.000000000018173
        0.000000000055314
       -0.000000000032299
       -0.000000000028322
        0.000000000001720
        0.000000000000000
        0.000000000000000
        0.000000000000000
        0.000000000000000
        0.000000000012124
       -0.000000000005194
        0.000000000003821
       -0.000000000008163
        0.000000000000000
        0.000000000000000
        0.000000000000000
        0.000000000000000
        0.000000000000000
        0.000000000000000
        0.000000000003766
       -0.000000000004651
        0.000000000000000
        0.000000000000000
        0.000000000000000
        0.000000000000000
        0.000000000000000
        0.000000000000000
        0.000000000000000
        0.000000000000000
        0.000000000000000
        0.000000000000000
        0.000000000000000
        0.000000000000000
        0.000000000000000
        0.000000000000000
        0.000000000000000
        0.000000000000000
        0.000000000000000
        0.000000000000000
        0.000000000000000
        0.000000000000000
        0.000000000000000
        0.000000000000000
        0.000000000000000
        0.000000000000000
        0.000000000000000
        0.000000000000000
        0.000000000000000
        0.000000000000000
        0.000000000000000
        0.000000000000000
        0.000000000000000
        0.000000000000000
        0.000000000000000
        0.000000000000000
        0.000000000000000
        0.000000000000000
        0.000000000000000
        0.000000000000000
        0.000000000000000
        0.000000000000000
        0.000000000000000
        0.000000000000000
        0.000000000004542
       -0.000000000005353
        0.000000000000000
        0.000000000000000
        0.000000000000000
        0.000000000000000
        0.000000000000000
        0.000000000000000
        0.000000000000000
        0.000000000001886
        0.000000000002076
       -0.000000000001916
        0.000000000000000
        0.000000000000000
        0.000000000000000
        0.000000000000000
        0.000000000000000
        0.000000000000000
        0.000000000000000
        0.000000000005323
       -0.000000000003058
        0.000000000000000
        0.000000000000000
        0.000000000000000
        0.000000000000000
        0.000000000000000
        0.000000000000000
        0.000000000000000
        0.000000000000000
        0.000000000000000
        0.000000000000000
        0.000000000000000
        0.000000000000000
        0.000000000000000
        0.000000000000000
        0.000000000000000
        0.000000000000000
        0.000000000000000
        0.000000000000000
        0.000000000000000
        0.000000000000000
        0.000000000000000
        0.000000000000000
        0.000000000000000
        0.000000000000000
        0.000000000000000
        0.000000000000000
        0.000000000000000
        0.000000000000000
        0.000000000000000
        0.000000000000000
END_DATAGRID_3D
END_BLOCK_DATAGRID_3D
