ATOMS
         C    7.558905    7.558905    7.558905
         H    8.755769    8.755769    8.755769
         H    6.362040    6.362040    8.755769
         H    8.755769    6.362040    6.362040
         H    6.362040    8.755769    6.362040
BEGIN_BLOCK_DATAGRID_3D
units: coords = b, function = sqrt(b^-3)
BEGIN_DATAGRID_3D_function
      9      9      9
0.0 0.0 0.0
   15.117809    0.000000    0.000000
    0.000000   15.117809    0.000000
    0.000000    0.000000   15.117809
        0.000000000000000
        0.000000000000000
        0.000000000000000
        0.000000000000000
        0.000000000000000
        0.000000000000000
        0.000000000000000
        0.000000000000000
        0.000000000000000
        0.000000000000000
        0.000000000000000
        0.000000000000000
        0.000000000000000
        0.000000000000000
        0.000000000000000
        0.000000000000000
        0.000000000000000
        0.000000000000000
        0.000000000000000
        0.000000000000000
        0.000000000000000
        0.000000000000000
        0.000000000000000
        0.000000000000000
        0.000000000000000
        0.000000000000000
        0.000000000000000
        0.000000000000000
        0.000000000000000
        0.000000000000000
        0.000000000000000
       -0.000014231130169
        0.000005400996525
        0.000000000000000
        0.000000000000000
        0.000000000000000
        0.000000000000000
        0.000000000000000
        0.000000000000000
       -0.000031398064691
       -0.000013180136292
        0.000013870614076
        0.000000000000000
        0.000000000000000
        0.000000000000000
        0.000000000000000
        0.000000000000000
        0.000000000000000
       -0.000020390101789
       -0.000003451874895
        0.000000000000000
        0.000000000000000
        0.000000000000000
        0.000000000000000
        0.000000000000000
        0.000000000000000
        0.000000000000000
        0.000000000000000
        0.000000000000000
        0.000000000000000
        0.000000000000000
        0.000000000000000
        0.000000000000000
        0.000000000000000
        0.000000000000000
        0.000000000000000
        0.000000000000000
        0.000000000000000
        0.000000000000000
        0.000000000000000
        0.000000000000000
        0.000000000000000
        0.000000000000000
        0.000000000000000
        0.000000000000000
        0.000000000000000
        0.000000000000000
        0.000000000000000
        0.000000000000000
        0.000000000000000
        0.000000000000000
        0.000000000000000
        0.000000000000000
        0.000000000000000
        0.000000000000000
        0.000000000000000
        0.000000000000000
        0.000000000000000
        0.000000000000000
        0.000000000000000
        0.000000000000000
        0.000000000000000
        0.000000000000000
        0.000000000000000
       -0.000030740537973
       -0.000010527341459
        0.000000000000000
        0.000000000000000
        0.000000000000000
        0.000000000000000
        0.000000000000000
        0.000000000000000
       -0.000111003421661
       -0.000092989709604
       -0.000001359939485
        0.000030986135739
        0.000000000000000
        0.000000000000000
        0.000000000000000
        0.000000000000000
       -0.000146057922474
       -0.000237651358470
       -0.000132934884619
        0.000063412365013
        0.000101978921860
        0.000046225372321
        0.000000000000000
        0.000000000000000
       -0.000071142387231
       -0.000203760697185
       -0.000268780518982
       -0.000076484748790
        0.000158169426420
        0.000159158187180
        0.000060878522957
        0.000000000000000
        0.000000000000000
       -0.000056060602265
       -0.000141728722106
       -0.000153816351433
        0.000020856440767
        0.000164927868395
        0.000120022581509
        0.000000000000000
        0.000000000000000
        0.000000000000000
        0.000000000000000
       -0.000049649699503
       -0.000039932848191
        0.000045892537826
        0.000083808500453
        0.000000000000000
        0.000000000000000
        0.000000000000000
        0.000000000000000
        0.000000000000000
        0.000000000000000
       -0.000000397546148
        0.000019114898619
        0.000000000000000
        0.000000000000000
        0.000000000000000
        0.000000000000000
        0.000000000000000
        0.000000000000000
        0.000000000000000
        0.000000000000000
        0.000000000000000
        0.000000000000000
        0.000000000000000
        0.000000000000000
        0.000000000000000
        0.000000000000000
        0.000000000000000
        0.000000000000000
        0.000000000000000
        0.000000000000000
        0.000000000000000
        0.000000000000000
        0.000000000000000
        0.000000000000000
        0.000000000000000
        0.000000000000000
        0.000000000000000
       -0.000147453282082
       -0.000145332314936
       -0.000040381071429
        0.000014485190546
        0.000000000000000
        0.000000000000000
        0.000000000000000
        0.000000000000000
       -0.000297347875948
       -0.000564087731248
       -0.000449960682412
        0.000007161402627
        0.000136610562877
        0.000065978468755
        0.000000000000000
        0.000000000000000
       -0.000211269511729
       -0.000716811698009
       -0.001231201701310
       -0.000764814821875
        0.000446286715867
        0.000477836345762
        0.000185107854853
        0.000000000000000
        0.000000000000000
       -0.000297103013756
       -0.000938423805447
       -0.001552947068885
       -0.000350239600200
        0.001121325550863
        0.000803355674430
        0.000271124515831
        0.000000000000000
        0.000000000000000
       -0.000211109981331
       -0.000601990036092
       -0.000794516294891
        0.000324007012013
        0.000988932761205
        0.000641834384139
        0.000198291373631
        0.000000000000000
        0.000000000000000
       -0.000078923770540
       -0.000193415609324
       -0.000138240729008
        0.000302918674220
        0.000483372452098
        0.000274436312815
        0.000000000000000
        0.000000000000000
        0.000000000000000
        0.000000000000000
       -0.000028628424245
        0.000010120249797
        0.000113496381373
        0.000131209948704
        0.000000000000000
        0.000000000000000
        0.000000000000000
        0.000000000000000
        0.000000000000000
        0.000000000000000
        0.000000000000000
        0.000000000000000
        0.000000000000000
        0.000000000000000
        0.000000000000000
        0.000000000000000
        0.000000000000000
        0.000000000000000
        0.000000000000000
        0.000000000000000
       -0.000059771063830
       -0.000030588742776
        0.000000000000000
        0.000000000000000
        0.000000000000000
        0.000000000000000
        0.000000000000000
       -0.000225838701589
       -0.000426336592052
       -0.000386703900195
       -0.000116433264703
        0.000029562956993
        0.000027936203400
        0.000000000000000
        0.000000000000000
       -0.000254575758885
       -0.000906480867337
       -0.001729106868225
       -0.001487161851185
       -0.000002610290283
        0.000326356962654
        0.000151733134781
        0.000000000000000
        0.000000000000000
       -0.000576203508274
       -0.002127766403511
       -0.004553954281307
       -0.003355412706685
        0.001881305610742
        0.001396885637845
        0.000445380895983
        0.000082066000929
       -0.000112614209705
       -0.000722884535601
       -0.002849979638251
       -0.006434879835356
       -0.000929184292943
        0.005506332877955
        0.002657616905347
        0.000699461872748
        0.000111283185267
       -0.000084399909366
       -0.000474785631692
       -0.001598364250540
       -0.002682041335497
        0.002385890133308
        0.004174258254034
        0.002052265921620
        0.000569100904086
        0.000000000000000
        0.000000000000000
       -0.000168883666546
       -0.000409015112339
       -0.000218709118222
        0.001256960976153
        0.001636440641559
        0.000890193015943
        0.000255388455011
        0.000000000000000
        0.000000000000000
       -0.000032920831666
       -0.000049475282366
        0.000076874846911
        0.000348614562711
        0.000410306280377
        0.000224489255299
        0.000000000000000
        0.000000000000000
        0.000000000000000
        0.000000000000000
        0.000000000000000
        0.000025775024776
        0.000055365055011
        0.000000000000000
        0.000000000000000
        0.000000000000000
        0.000000000000000
        0.000000000000000
        0.000000000000000
        0.000000000000000
       -0.000097893255433
       -0.000103588744476
       -0.000040885650046
        0.000000000000000
        0.000000000000000
        0.000000000000000
        0.000000000000000
       -0.000121075837672
       -0.000392365342547
       -0.000688825310537
       -0.000601116991424
       -0.000190310999306
        0.000025095928176
        0.000031288935538
        0.000000000000000
        0.000000000000000
       -0.000433252100979
       -0.001541217283560
       -0.003242518708889
       -0.002752586188190
       -0.000211408373729
        0.000398978374767
        0.000189487135692
        0.000000000000000
       -0.000133507984216
       -0.000888878823574
       -0.003816341890952
       -0.010225349687601
       -0.007302132542266
        0.002650455497294
        0.002047630426463
        0.000604979834204
        0.000102130087610
       -0.000174880246757
       -0.001018318917694
       -0.004679261195120
       -0.012456159215751
       -0.000000696774129
        0.012541583788284
        0.004743890937964
        0.001039539574474
        0.000179745511872
       -0.000101112189026
       -0.000603344919697
       -0.002072900178184
       -0.002771573868800
        0.007301844743690
        0.010435654345337
        0.003923001993386
        0.000918319653710
        0.000139019613385
        0.000000000000000
       -0.000193813951436
       -0.000423274437162
        0.000156569231595
        0.002752531134943
        0.003318550866807
        0.001592672447368
        0.000450630501263
        0.000000000000000
        0.000000000000000
       -0.000033705021070
       -0.000032974036524
        0.000178221019716
        0.000601108702105
        0.000704421864582
        0.000406122164166
        0.000126713334357
        0.000000000000000
        0.000000000000000
        0.000000000000000
        0.000000000000000
        0.000038839220555
        0.000103587942486
        0.000100344584361
        0.000000000000000
        0.000000000000000
        0.000000000000000
        0.000000000000000
        0.000000000000000
        0.000000000000000
       -0.000087716207509
       -0.000079204994792
        0.000000000000000
        0.000000000000000
        0.000000000000000
        0.000000000000000
        0.000000000000000
       -0.000112074783973
       -0.000352500625556
       -0.000598286522191
       -0.000494154872328
       -0.000155156671902
        0.000008470616533
        0.000000000000000
        0.000000000000000
        0.000000000000000
       -0.000382666046154
       -0.001348903103335
       -0.002758192988727
       -0.001977215088696
       -0.000229693359245
        0.000251828332935
        0.000123311170196
        0.000000000000000
       -0.000115656563088
       -0.000738804778050
       -0.003110989480940
       -0.008262294989629
       -0.004263740763870
        0.001354965329896
        0.001332521680418
        0.000438112905045
        0.000000000000000
       -0.000122005963537
       -0.000769339207671
       -0.003039262430885
       -0.006562043721045
        0.000928896494368
        0.007579776964676
        0.003313015514503
        0.000823837615165
        0.000129866515728
        0.000000000000000
       -0.000410473757947
       -0.001210866285232
       -0.000937594291005
        0.005232973870172
        0.009138183394178
        0.003377543485211
        0.000793487271367
        0.000123557930430
        0.000000000000000
       -0.000116402910606
       -0.000219970298248
        0.000331944967019
        0.002207341035787
        0.002999969210569
        0.001455868184011
        0.000411296426663
        0.000000000000000
        0.000000000000000
        0.000000000000000
       -0.000003947294385
        0.000172925657315
        0.000532231540342
        0.000641428225128
        0.000377969169017
        0.000120077282999
        0.000000000000000
        0.000000000000000
        0.000000000000000
        0.000000000000000
        0.000000000000000
        0.000083609472700
        0.000092955130546
        0.000000000000000
        0.000000000000000
        0.000000000000000
        0.000000000000000
        0.000000000000000
        0.000000000000000
        0.000000000000000
        0.000000000000000
        0.000000000000000
        0.000000000000000
        0.000000000000000
        0.000000000000000
        0.000000000000000
        0.000000000000000
       -0.000164291155210
       -0.000284354692614
       -0.000224822197006
       -0.000071270245221
        0.000000000000000
        0.000000000000000
        0.000000000000000
        0.000000000000000
       -0.000176948966543
       -0.000595840862814
       -0.001037668622953
       -0.000705664925901
       -0.000096941397576
        0.000089082941371
        0.000000000000000
        0.000000000000000
        0.000000000000000
       -0.000340439731369
       -0.001155928179581
       -0.002182385812059
       -0.001044261124556
        0.000417814521110
        0.000500186964740
        0.000180408251576
        0.000000000000000
        0.000000000000000
       -0.000329963038658
       -0.001026067915275
       -0.001533002408410
        0.000350184546952
        0.001985816942216
        0.001188295147705
        0.000368993121124
        0.000000000000000
        0.000000000000000
       -0.000159709157761
       -0.000409639467576
       -0.000165960199896
        0.001484994006477
        0.002551072204419
        0.001304388800903
        0.000377921706591
        0.000000000000000
        0.000000000000000
        0.000000000000000
       -0.000061218719596
        0.000180287602313
        0.000852680982088
        0.001176830991181
        0.000663557942998
        0.000195219708277
        0.000000000000000
        0.000000000000000
        0.000000000000000
        0.000000000000000
        0.000087919508368
        0.000256652916515
        0.000316501229699
        0.000181099753091
        0.000000000000000
        0.000000000000000
        0.000000000000000
        0.000000000000000
        0.000000000000000
        0.000000000000000
        0.000000000000000
        0.000000000000000
        0.000000000000000
        0.000000000000000
        0.000000000000000
        0.000000000000000
        0.000000000000000
        0.000000000000000
        0.000000000000000
        0.000000000000000
        0.000000000000000
        0.000000000000000
        0.000000000000000
        0.000000000000000
        0.000000000000000
        0.000000000000000
        0.000000000000000
       -0.000074841471849
       -0.000060625929792
        0.000000000000000
        0.000000000000000
        0.000000000000000
        0.000000000000000
        0.000000000000000
        0.000000000000000
       -0.000143269879951
       -0.000234301594627
       -0.000157218353459
       -0.000023868796970
        0.000000000000000
        0.000000000000000
        0.000000000000000
        0.000000000000000
       -0.000088935013374
       -0.000260247185816
       -0.000367595323847
       -0.000166396750384
        0.000090221740079
        0.000112937290323
        0.000000000000000
        0.000000000000000
        0.000000000000000
       -0.000083638471511
       -0.000221578681886
       -0.000241823771839
        0.000076476459470
        0.000355941438856
        0.000272059905162
        0.000097123746938
        0.000000000000000
        0.000000000000000
        0.000000000000000
       -0.000083728073500
       -0.000015759576267
        0.000278462524766
        0.000461582595413
        0.000305553204150
        0.000101788114078
        0.000000000000000
        0.000000000000000
        0.000000000000000
        0.000000000000000
        0.000051469647947
        0.000204310311183
        0.000277480097755
        0.000164598807898
        0.000000000000000
        0.000000000000000
        0.000000000000000
        0.000000000000000
        0.000000000000000
        0.000000000000000
        0.000072250405421
        0.000086282827846
        0.000000000000000
        0.000000000000000
        0.000000000000000
        0.000000000000000
        0.000000000000000
        0.000000000000000
        0.000000000000000
        0.000000000000000
        0.000000000000000
        0.000000000000000
        0.000000000000000
        0.000000000000000
        0.000000000000000
        0.000000000000000
        0.000000000000000
        0.000000000000000
        0.000000000000000
        0.000000000000000
        0.000000000000000
        0.000000000000000
        0.000000000000000
        0.000000000000000
        0.000000000000000
        0.000000000000000
        0.000000000000000
        0.000000000000000
        0.000000000000000
        0.000000000000000
        0.000000000000000
        0.000000000000000
        0.000000000000000
        0.000000000000000
        0.000000000000000
        0.000000000000000
        0.000000000000000
        0.000000000000000
        0.000000000000000
        0.000000000000000
        0.000000000000000
        0.000000000000000
        0.000000000000000
        0.000000000000000
       -0.000041551080944
       -0.000020388064887
        0.000000000000000
        0.000000000000000
        0.000000000000000
        0.000000000000000
        0.000000000000000
        0.000000000000000
        0.000000000000000
       -0.000027655970187
        0.000013179334302
        0.000045588320240
        0.000000000000000
        0.000000000000000
        0.000000000000000
        0.000000000000000
        0.000000000000000
        0.000000000000000
        0.000000000000000
        0.000038069539039
        0.000056965391244
        0.000000000000000
        0.000000000000000
        0.000000000000000
        0.000000000000000
        0.000000000000000
        0.000000000000000
        0.000000000000000
        0.000000000000000
        0.000000000000000
        0.000000000000000
        0.000000000000000
        0.000000000000000
        0.000000000000000
        0.000000000000000
        0.000000000000000
        0.000000000000000
        0.000000000000000
        0.000000000000000
        0.000000000000000
        0.000000000000000
        0.000000000000000
        0.000000000000000
        0.000000000000000
        0.000000000000000
        0.000000000000000
        0.000000000000000
        0.000000000000000
        0.000000000000000
        0.000000000000000
        0.000000000000000
END_DATAGRID_3D
END_BLOCK_DATAGRID_3D
