ATOMS
         C    7.558905    7.558905    7.558905
         H    8.755769    8.755769    8.755769
         H    6.362040    6.362040    8.755769
         H    8.755769    6.362040    6.362040
         H    6.362040    8.755769    6.362040
BEGIN_BLOCK_DATAGRID_3D
units: coords = b, function = sqrt(b^-3)
BEGIN_DATAGRID_3D_function
      9      9      9
0.0 0.0 0.0
   15.117809    0.000000    0.000000
    0.000000   15.117809    0.000000
    0.000000    0.000000   15.117809
        0.000000000000000
        0.000000000000000
        0.000000000000000
        0.000000000000000
        0.000000000000000
        0.000000000000000
        0.000000000000000
        0.000000000000000
        0.000000000000000
        0.000000000000000
        0.000000000000000
        0.000000000000000
        0.000000000000000
        0.000000000000000
        0.000000000000000
        0.000000000000000
        0.000000000000000
        0.000000000000000
        0.000000000000000
        0.000000000000000
        0.000000000000000
        0.000000000000000
        0.000000000000000
        0.000000000000000
        0.000000000000000
        0.000000000000000
        0.000000000000000
        0.000000000000000
        0.000000000000000
        0.000000000000000
        0.000000000000000
        0.000766628515918
        0.000534272885609
        0.000000000000000
        0.000000000000000
        0.000000000000000
        0.000000000000000
        0.000000000000000
        0.000000000000000
        0.001224922816072
        0.001533355594549
        0.000832253465500
        0.000000000000000
        0.000000000000000
        0.000000000000000
        0.000000000000000
        0.000000000000000
        0.000000000000000
        0.001219850397683
        0.001290542980171
        0.000000000000000
        0.000000000000000
        0.000000000000000
        0.000000000000000
        0.000000000000000
        0.000000000000000
        0.000000000000000
        0.000000000000000
        0.000000000000000
        0.000000000000000
        0.000000000000000
        0.000000000000000
        0.000000000000000
        0.000000000000000
        0.000000000000000
        0.000000000000000
        0.000000000000000
        0.000000000000000
        0.000000000000000
        0.000000000000000
        0.000000000000000
        0.000000000000000
        0.000000000000000
        0.000000000000000
        0.000000000000000
        0.000000000000000
        0.000000000000000
        0.000000000000000
        0.000000000000000
        0.000000000000000
        0.000000000000000
        0.000000000000000
        0.000000000000000
        0.000000000000000
        0.000000000000000
        0.000000000000000
        0.000000000000000
        0.000000000000000
        0.000000000000000
        0.000000000000000
        0.000000000000000
        0.000000000000000
        0.000000000000000
        0.000000000000000
        0.000024065939923
       -0.000044484008863
        0.000000000000000
        0.000000000000000
        0.000000000000000
        0.000000000000000
        0.000000000000000
        0.000000000000000
        0.000877756607833
        0.000957961611212
        0.000414702384663
        0.000046593248602
        0.000000000000000
        0.000000000000000
        0.000000000000000
        0.000000000000000
        0.001824380226344
        0.003839537510318
        0.004365376348335
        0.002416594128800
        0.000654808571044
        0.000087097276682
        0.000000000000000
        0.000000000000000
        0.001115558998030
        0.003934006445009
        0.007993777690338
        0.008897923442845
        0.005045044083098
        0.001545258872840
        0.000236944075896
        0.000000000000000
        0.000000000000000
        0.001179919929222
        0.004164670242196
        0.008187687969781
        0.008673374149125
        0.004781781456377
        0.001417150326562
        0.000000000000000
        0.000000000000000
        0.000000000000000
        0.000000000000000
        0.002189260974581
        0.004404704940685
        0.004521189236426
        0.002363725338551
        0.000000000000000
        0.000000000000000
        0.000000000000000
        0.000000000000000
        0.000000000000000
        0.000000000000000
        0.001311449217953
        0.001328382551644
        0.000000000000000
        0.000000000000000
        0.000000000000000
        0.000000000000000
        0.000000000000000
        0.000000000000000
        0.000000000000000
        0.000000000000000
        0.000000000000000
        0.000000000000000
        0.000000000000000
        0.000000000000000
        0.000000000000000
        0.000000000000000
        0.000000000000000
        0.000000000000000
        0.000000000000000
        0.000000000000000
        0.000000000000000
        0.000000000000000
        0.000000000000000
        0.000000000000000
        0.000000000000000
        0.000000000000000
        0.000000000000000
       -0.000271125926732
       -0.000686163404816
       -0.000806753793345
       -0.000468156261143
        0.000000000000000
        0.000000000000000
        0.000000000000000
        0.000000000000000
        0.000892069455927
        0.001430863879146
        0.000528314840147
       -0.001027720272331
       -0.000946463939286
       -0.000349024699713
        0.000000000000000
        0.000000000000000
        0.001466739564150
        0.005562416246842
        0.011937832965893
        0.012913931196791
        0.004029586773821
        0.000065842763359
       -0.000283952028730
        0.000000000000000
        0.000000000000000
        0.003422214921121
        0.013658822003116
        0.033963723318216
        0.040744555728721
        0.017317343687377
        0.003447524910097
        0.000281667229866
        0.000000000000000
        0.000000000000000
        0.003784468381134
        0.015242010281957
        0.036977959152663
        0.038366781433187
        0.017133337460097
        0.004246246079842
        0.000534184566710
        0.000000000000000
        0.000000000000000
        0.002029045790630
        0.007819373418644
        0.016335321348513
        0.016577588807518
        0.008377584968061
        0.002230075618386
        0.000000000000000
        0.000000000000000
        0.000000000000000
        0.000000000000000
        0.002148128165402
        0.004307104728583
        0.004389822541391
        0.002271932566053
        0.000000000000000
        0.000000000000000
        0.000000000000000
        0.000000000000000
        0.000000000000000
        0.000000000000000
        0.000000000000000
        0.000000000000000
        0.000000000000000
        0.000000000000000
        0.000000000000000
        0.000000000000000
        0.000000000000000
        0.000000000000000
        0.000000000000000
        0.000000000000000
       -0.000663798097012
       -0.000592306342123
        0.000000000000000
        0.000000000000000
        0.000000000000000
        0.000000000000000
        0.000000000000000
       -0.000699044519994
       -0.002107798804267
       -0.003605714048473
       -0.003213026188982
       -0.001604202490015
       -0.000481479514370
        0.000000000000000
        0.000000000000000
        0.000092192672108
       -0.000436758152684
       -0.003756049684618
       -0.009775567655652
       -0.010022038202619
       -0.004659554290843
       -0.001321510042242
        0.000000000000000
        0.000000000000000
        0.001988114734509
        0.007052184145379
        0.013614892362193
        0.004906858323801
       -0.013079163485646
       -0.006770123562932
       -0.001910129248630
       -0.000331568197045
        0.000779649980367
        0.005512448763602
        0.026900372544467
        0.087186452125984
        0.108087411049889
        0.025595121826657
       -0.000121072181121
       -0.001081190996137
       -0.000267108572744
        0.000869174131988
        0.006435334320616
        0.032603670939662
        0.108051027462874
        0.107873524581495
        0.034037513752238
        0.005071676254484
        0.000210975428315
        0.000000000000000
        0.000000000000000
        0.003701554175288
        0.014864411580026
        0.035855174709719
        0.036553876158678
        0.015879444105795
        0.003766954957089
        0.000424373685581
        0.000000000000000
        0.000000000000000
        0.001134483323688
        0.003984155560560
        0.007737855244453
        0.008036478600165
        0.004306609140105
        0.001215546268461
        0.000000000000000
        0.000000000000000
        0.000000000000000
        0.000000000000000
        0.000000000000000
        0.001129832346499
        0.001176249065873
        0.000000000000000
        0.000000000000000
        0.000000000000000
        0.000000000000000
        0.000000000000000
        0.000000000000000
        0.000000000000000
       -0.000870979322640
       -0.001306449405000
       -0.000881769986757
        0.000000000000000
        0.000000000000000
        0.000000000000000
        0.000000000000000
       -0.000469341738168
       -0.002031500348037
       -0.005245978062914
       -0.007581202288799
       -0.005863267364779
       -0.002636803931751
       -0.000682945953106
        0.000000000000000
        0.000000000000000
       -0.000899188861460
       -0.005407309505958
       -0.019291223290894
       -0.034715097815958
       -0.024400682403678
       -0.009167012929004
       -0.002256285697901
        0.000000000000000
        0.000114167865393
        0.000243707769897
       -0.003665130481682
       -0.032287424862742
       -0.092092122204107
       -0.063802083901685
       -0.019149639127454
       -0.004018440362371
       -0.000550705066581
        0.000649335296029
        0.003767952541646
        0.017253141302130
        0.045768808626625
        0.000000791850153
       -0.045765742373625
       -0.017251708017036
       -0.003767328310113
       -0.000649199367223
        0.000756986999068
        0.005277723393332
        0.025379846588318
        0.080043333443078
        0.092092964864113
        0.016049451536111
       -0.002563071401251
       -0.001502100002705
       -0.000320271156633
        0.000000000000000
        0.003219400063434
        0.012650817045991
        0.030630288608935
        0.034715290670171
        0.013062434162569
        0.001924273426511
       -0.000063563559745
        0.000000000000000
        0.000000000000000
        0.001042048309544
        0.003599823628239
        0.007122154370226
        0.007581232413952
        0.003987233179357
        0.001068659496136
        0.000110328557439
        0.000000000000000
        0.000000000000000
        0.000000000000000
        0.000000000000000
        0.001087965923065
        0.001306453728055
        0.000664796364824
        0.000000000000000
        0.000000000000000
        0.000000000000000
        0.000000000000000
        0.000000000000000
        0.000000000000000
       -0.000902236787143
       -0.001088954724769
        0.000000000000000
        0.000000000000000
        0.000000000000000
        0.000000000000000
        0.000000000000000
       -0.000597983114759
       -0.002501978759471
       -0.005821965495237
       -0.007503552241112
       -0.005237670057145
       -0.002062721927452
        0.000000000000000
        0.000000000000000
        0.000000000000000
       -0.001660761688813
       -0.008382579348170
       -0.024916789767816
       -0.033916514491682
       -0.021012788380578
       -0.007919970818205
       -0.001796819109841
        0.000000000000000
       -0.000126356561094
       -0.001944868888571
       -0.015239445019140
       -0.067837094682203
       -0.100997371972099
       -0.054214212359745
       -0.017380653187610
       -0.003861218081865
        0.000000000000000
        0.000091504884094
        0.000008982399627
       -0.005185656437831
       -0.039430543545648
       -0.108086568389882
       -0.073347754192230
       -0.021591638347585
       -0.004439349368939
       -0.000603867650470
        0.000000000000000
        0.001662695466675
        0.005258058537929
        0.006563291947670
       -0.011781947378684
       -0.027132069264376
       -0.010592519047505
       -0.002579603432391
       -0.000411097302410
        0.000000000000000
        0.001280463726683
        0.004590233598605
        0.008889806512390
        0.007138477175394
       -0.000915593791412
       -0.001821598737239
       -0.000718963486026
        0.000000000000000
        0.000000000000000
        0.000000000000000
        0.001546310428115
        0.003038939379193
        0.003072833430263
        0.001297273033227
        0.000122193715877
       -0.000054937065746
        0.000000000000000
        0.000000000000000
        0.000000000000000
        0.000000000000000
        0.000000000000000
        0.000576508300970
        0.000364723779901
        0.000000000000000
        0.000000000000000
        0.000000000000000
        0.000000000000000
        0.000000000000000
        0.000000000000000
        0.000000000000000
        0.000000000000000
        0.000000000000000
        0.000000000000000
        0.000000000000000
        0.000000000000000
        0.000000000000000
        0.000000000000000
       -0.001436794640253
       -0.003299449570859
       -0.003982177754191
       -0.002490661831178
        0.000000000000000
        0.000000000000000
        0.000000000000000
        0.000000000000000
       -0.001082289546715
       -0.004909207276436
       -0.012014531051577
       -0.015102848088345
       -0.009787701869412
       -0.003552038298047
        0.000000000000000
        0.000000000000000
        0.000000000000000
       -0.001743675894658
       -0.008760178050101
       -0.026039574210760
       -0.035729419766191
       -0.022266681734880
       -0.008399261940958
       -0.001906629990969
        0.000000000000000
        0.000000000000000
       -0.001102003719147
       -0.006415314463083
       -0.022624658000175
       -0.040744362874507
       -0.028655591928486
       -0.010690264412590
       -0.002601516487512
        0.000000000000000
        0.000000000000000
       -0.000094083165358
       -0.001408940800922
       -0.006804076138121
       -0.015551021677050
       -0.014967218767853
       -0.006546995791441
       -0.001756521499538
        0.000000000000000
        0.000000000000000
        0.000000000000000
        0.000430032897038
       -0.000020618723575
       -0.002002961302367
       -0.003292771962056
       -0.001963383981616
       -0.000597585604730
        0.000000000000000
        0.000000000000000
        0.000000000000000
        0.000000000000000
        0.000489873182700
        0.000278539551734
       -0.000200831123425
       -0.000243102939830
        0.000000000000000
        0.000000000000000
        0.000000000000000
        0.000000000000000
        0.000000000000000
        0.000000000000000
        0.000000000000000
        0.000000000000000
        0.000000000000000
        0.000000000000000
        0.000000000000000
        0.000000000000000
        0.000000000000000
        0.000000000000000
        0.000000000000000
        0.000000000000000
        0.000000000000000
        0.000000000000000
        0.000000000000000
        0.000000000000000
        0.000000000000000
        0.000000000000000
        0.000000000000000
       -0.001034992109156
       -0.001176380276471
        0.000000000000000
        0.000000000000000
        0.000000000000000
        0.000000000000000
        0.000000000000000
        0.000000000000000
       -0.001477927449432
       -0.003397049782961
       -0.004113544449226
       -0.002582454603675
        0.000000000000000
        0.000000000000000
        0.000000000000000
        0.000000000000000
       -0.000643419720293
       -0.002682493441108
       -0.006271798220564
       -0.008140447790072
       -0.005712842373418
       -0.002264325985553
        0.000000000000000
        0.000000000000000
        0.000000000000000
       -0.000542852426653
       -0.002365683164807
       -0.006117601383026
       -0.008897893317692
       -0.006921078268521
       -0.003113403308455
       -0.000809561471563
        0.000000000000000
        0.000000000000000
        0.000000000000000
       -0.000977114318223
       -0.002908396935392
       -0.004898256966545
       -0.004332347284555
       -0.002136817345181
       -0.000623513856797
        0.000000000000000
        0.000000000000000
        0.000000000000000
        0.000000000000000
       -0.000659009351866
       -0.001365585464294
       -0.001422287301433
       -0.000757852449574
        0.000000000000000
        0.000000000000000
        0.000000000000000
        0.000000000000000
        0.000000000000000
        0.000000000000000
       -0.000176062699909
       -0.000231958200840
        0.000000000000000
        0.000000000000000
        0.000000000000000
        0.000000000000000
        0.000000000000000
        0.000000000000000
        0.000000000000000
        0.000000000000000
        0.000000000000000
        0.000000000000000
        0.000000000000000
        0.000000000000000
        0.000000000000000
        0.000000000000000
        0.000000000000000
        0.000000000000000
        0.000000000000000
        0.000000000000000
        0.000000000000000
        0.000000000000000
        0.000000000000000
        0.000000000000000
        0.000000000000000
        0.000000000000000
        0.000000000000000
        0.000000000000000
        0.000000000000000
        0.000000000000000
        0.000000000000000
        0.000000000000000
        0.000000000000000
        0.000000000000000
        0.000000000000000
        0.000000000000000
        0.000000000000000
        0.000000000000000
        0.000000000000000
        0.000000000000000
        0.000000000000000
        0.000000000000000
        0.000000000000000
        0.000000000000000
       -0.000992254838327
       -0.001203248639067
        0.000000000000000
        0.000000000000000
        0.000000000000000
        0.000000000000000
        0.000000000000000
        0.000000000000000
        0.000000000000000
       -0.001007936215647
       -0.001533351271495
       -0.001049227087433
        0.000000000000000
        0.000000000000000
        0.000000000000000
        0.000000000000000
        0.000000000000000
        0.000000000000000
        0.000000000000000
       -0.000853918311961
       -0.000761855447831
        0.000000000000000
        0.000000000000000
        0.000000000000000
        0.000000000000000
        0.000000000000000
        0.000000000000000
        0.000000000000000
        0.000000000000000
        0.000000000000000
        0.000000000000000
        0.000000000000000
        0.000000000000000
        0.000000000000000
        0.000000000000000
        0.000000000000000
        0.000000000000000
        0.000000000000000
        0.000000000000000
        0.000000000000000
        0.000000000000000
        0.000000000000000
        0.000000000000000
        0.000000000000000
        0.000000000000000
        0.000000000000000
        0.000000000000000
        0.000000000000000
        0.000000000000000
        0.000000000000000
        0.000000000000000
END_DATAGRID_3D
END_BLOCK_DATAGRID_3D
