ATOMS
         C    7.558905    7.558905    7.558905
         H    8.755769    8.755769    8.755769
         H    6.362040    6.362040    8.755769
         H    8.755769    6.362040    6.362040
         H    6.362040    8.755769    6.362040
BEGIN_BLOCK_DATAGRID_3D
units: coords = b, function = 1/hbar/H*b^-2
BEGIN_DATAGRID_3D_function
      9      9      9
0.0 0.0 0.0
   15.117809    0.000000    0.000000
    0.000000   15.117809    0.000000
    0.000000    0.000000   15.117809
        0.000000000000000
        0.000000000000000
        0.000000000000000
        0.000000000000000
        0.000000000000000
        0.000000000000000
        0.000000000000000
        0.000000000000000
        0.000000000000000
        0.000000000000000
        0.000000000000000
        0.000000000000000
        0.000000000000000
        0.000000000000000
        0.000000000000000
        0.000000000000000
        0.000000000000000
        0.000000000000000
        0.000000000000000
        0.000000000000000
        0.000000000000000
        0.000000000000000
        0.000000000000000
        0.000000000000000
        0.000000000000000
        0.000000000000000
        0.000000000000000
        0.000000000000000
        0.000000000000000
        0.000000000000000
        0.000000000000000
       -0.000000000000072
       -0.000000000000235
        0.000000000000000
        0.000000000000000
        0.000000000000000
        0.000000000000000
        0.000000000000000
        0.000000000000000
       -0.000000000000004
       -0.000000000000860
        0.000000000000063
        0.000000000000000
        0.000000000000000
        0.000000000000000
        0.000000000000000
        0.000000000000000
        0.000000000000000
       -0.000000000000379
        0.000000000000131
        0.000000000000000
        0.000000000000000
        0.000000000000000
        0.000000000000000
        0.000000000000000
        0.000000000000000
        0.000000000000000
        0.000000000000000
        0.000000000000000
        0.000000000000000
        0.000000000000000
        0.000000000000000
        0.000000000000000
        0.000000000000000
        0.000000000000000
        0.000000000000000
        0.000000000000000
        0.000000000000000
        0.000000000000000
        0.000000000000000
        0.000000000000000
        0.000000000000000
        0.000000000000000
        0.000000000000000
        0.000000000000000
        0.000000000000000
        0.000000000000000
        0.000000000000000
        0.000000000000000
        0.000000000000000
        0.000000000000000
        0.000000000000000
        0.000000000000000
        0.000000000000000
        0.000000000000000
        0.000000000000000
        0.000000000000000
        0.000000000000000
        0.000000000000000
        0.000000000000000
        0.000000000000000
        0.000000000000000
        0.000000000000000
        0.000000000000000
        0.000000000000102
        0.000000000000381
        0.000000000000000
        0.000000000000000
        0.000000000000000
        0.000000000000000
        0.000000000000000
        0.000000000000000
       -0.000000000000760
        0.000000000001080
       -0.000000000000840
        0.000000000000776
        0.000000000000000
        0.000000000000000
        0.000000000000000
        0.000000000000000
       -0.000000000000669
        0.000000000000505
       -0.000000000000948
        0.000000000001415
       -0.000000000000217
        0.000000000000257
        0.000000000000000
        0.000000000000000
        0.000000000000202
        0.000000000000866
       -0.000000000001996
        0.000000000008555
        0.000000000002257
        0.000000000001181
        0.000000000000167
        0.000000000000000
        0.000000000000000
        0.000000000000354
       -0.000000000001382
        0.000000000000226
        0.000000000001208
        0.000000000001279
       -0.000000000000435
        0.000000000000000
        0.000000000000000
        0.000000000000000
        0.000000000000000
        0.000000000000524
       -0.000000000000759
        0.000000000000967
       -0.000000000000344
        0.000000000000000
        0.000000000000000
        0.000000000000000
        0.000000000000000
        0.000000000000000
        0.000000000000000
        0.000000000000230
        0.000000000000267
        0.000000000000000
        0.000000000000000
        0.000000000000000
        0.000000000000000
        0.000000000000000
        0.000000000000000
        0.000000000000000
        0.000000000000000
        0.000000000000000
        0.000000000000000
        0.000000000000000
        0.000000000000000
        0.000000000000000
        0.000000000000000
        0.000000000000000
        0.000000000000000
        0.000000000000000
        0.000000000000000
        0.000000000000000
        0.000000000000000
        0.000000000000000
        0.000000000000000
        0.000000000000000
        0.000000000000000
        0.000000000000000
       -0.000000000000594
        0.000000000000772
       -0.000000000000461
        0.000000000000425
        0.000000000000000
        0.000000000000000
        0.000000000000000
        0.000000000000000
       -0.000000000001746
        0.000000000000854
       -0.000000000001762
        0.000000000004483
       -0.000000000001513
        0.000000000000376
        0.000000000000000
        0.000000000000000
       -0.000000000000407
        0.000000000000103
        0.000000000006002
        0.000000000009789
        0.000000000025334
       -0.000000000005079
        0.000000000000175
        0.000000000000000
        0.000000000000000
        0.000000000000595
        0.000000000001429
        0.000000000033402
       -0.000000000151884
       -0.000000000047206
       -0.000000000005683
        0.000000000001108
        0.000000000000000
        0.000000000000000
       -0.000000000001234
        0.000000000015696
        0.000000000048241
       -0.000000000023586
       -0.000000000011784
        0.000000000001501
       -0.000000000000492
        0.000000000000000
        0.000000000000000
        0.000000000000322
       -0.000000000001362
        0.000000000006138
       -0.000000000002492
        0.000000000000750
       -0.000000000001214
        0.000000000000000
        0.000000000000000
        0.000000000000000
        0.000000000000000
        0.000000000000274
       -0.000000000000598
        0.000000000000931
       -0.000000000000305
        0.000000000000000
        0.000000000000000
        0.000000000000000
        0.000000000000000
        0.000000000000000
        0.000000000000000
        0.000000000000000
        0.000000000000000
        0.000000000000000
        0.000000000000000
        0.000000000000000
        0.000000000000000
        0.000000000000000
        0.000000000000000
        0.000000000000000
        0.000000000000000
        0.000000000000111
       -0.000000000000032
        0.000000000000000
        0.000000000000000
        0.000000000000000
        0.000000000000000
        0.000000000000000
       -0.000000000000448
       -0.000000000000043
        0.000000000000422
        0.000000000000663
        0.000000000000182
       -0.000000000000006
        0.000000000000000
        0.000000000000000
       -0.000000000000389
        0.000000000000001
        0.000000000002251
        0.000000000004028
        0.000000000004278
        0.000000000001319
        0.000000000000096
        0.000000000000000
        0.000000000000000
       -0.000000000000465
        0.000000000008311
        0.000000000007212
       -0.000000000183138
       -0.000000000185847
        0.000000000001675
        0.000000000001222
       -0.000000000000030
        0.000000000000166
       -0.000000000001758
        0.000000000039028
        0.000000000044868
       -0.000000000764814
       -0.000000000319278
       -0.000000000028801
        0.000000000002380
        0.000000000000139
       -0.000000000000043
        0.000000000000391
        0.000000000012861
       -0.000000000002317
       -0.000000000091231
       -0.000000000051585
       -0.000000000007219
        0.000000000000751
        0.000000000000000
        0.000000000000000
        0.000000000000028
        0.000000000002432
        0.000000000010255
        0.000000000006210
       -0.000000000001156
        0.000000000000296
       -0.000000000000326
        0.000000000000000
        0.000000000000000
       -0.000000000000005
       -0.000000000000058
        0.000000000000950
        0.000000000000198
        0.000000000000328
       -0.000000000000267
        0.000000000000000
        0.000000000000000
        0.000000000000000
        0.000000000000000
        0.000000000000000
       -0.000000000000041
        0.000000000000194
        0.000000000000000
        0.000000000000000
        0.000000000000000
        0.000000000000000
        0.000000000000000
        0.000000000000000
        0.000000000000000
        0.000000000000041
       -0.000000000000123
       -0.000000000000032
        0.000000000000000
        0.000000000000000
        0.000000000000000
        0.000000000000000
        0.000000000000005
       -0.000000000000197
       -0.000000000001093
       -0.000000000000096
        0.000000000001275
       -0.000000000000090
       -0.000000000000006
        0.000000000000000
        0.000000000000000
       -0.000000000000110
       -0.000000000001531
       -0.000000000000975
       -0.000000000002765
       -0.000000000001149
        0.000000000002249
       -0.000000000000003
        0.000000000000000
        0.000000000000043
       -0.000000000002515
        0.000000000017609
        0.000000000053068
       -0.000000000115704
       -0.000000000152993
        0.000000000017444
       -0.000000000000147
       -0.000000000000030
       -0.000000000000000
       -0.000000000000000
       -0.000000000000000
        0.000000000000000
       -0.000000000000000
       -0.000000000000000
        0.000000000000000
        0.000000000000000
       -0.000000000000000
       -0.000000000000043
        0.000000000002515
       -0.000000000017609
       -0.000000000053068
        0.000000000115704
        0.000000000152993
       -0.000000000017444
        0.000000000000147
        0.000000000000030
        0.000000000000000
        0.000000000000110
        0.000000000001531
        0.000000000000975
        0.000000000002765
        0.000000000001149
       -0.000000000002249
        0.000000000000003
        0.000000000000000
        0.000000000000000
       -0.000000000000005
        0.000000000000197
        0.000000000001093
        0.000000000000096
       -0.000000000001275
        0.000000000000090
        0.000000000000006
        0.000000000000000
        0.000000000000000
        0.000000000000000
        0.000000000000000
       -0.000000000000041
        0.000000000000123
        0.000000000000032
        0.000000000000000
        0.000000000000000
        0.000000000000000
        0.000000000000000
        0.000000000000000
        0.000000000000000
        0.000000000000041
       -0.000000000000194
        0.000000000000000
        0.000000000000000
        0.000000000000000
        0.000000000000000
        0.000000000000000
        0.000000000000005
        0.000000000000058
       -0.000000000000950
       -0.000000000000198
       -0.000000000000328
        0.000000000000267
        0.000000000000000
        0.000000000000000
        0.000000000000000
       -0.000000000000028
       -0.000000000002432
       -0.000000000010255
       -0.000000000006210
        0.000000000001156
       -0.000000000000296
        0.000000000000326
        0.000000000000000
        0.000000000000043
       -0.000000000000391
       -0.000000000012861
        0.000000000002317
        0.000000000091231
        0.000000000051585
        0.000000000007219
       -0.000000000000751
        0.000000000000000
       -0.000000000000166
        0.000000000001758
       -0.000000000039028
       -0.000000000044868
        0.000000000764814
        0.000000000319278
        0.000000000028801
       -0.000000000002380
       -0.000000000000139
        0.000000000000000
        0.000000000000465
       -0.000000000008311
       -0.000000000007212
        0.000000000183138
        0.000000000185847
       -0.000000000001675
       -0.000000000001222
        0.000000000000030
        0.000000000000000
        0.000000000000389
       -0.000000000000001
       -0.000000000002251
       -0.000000000004028
       -0.000000000004278
       -0.000000000001319
       -0.000000000000096
        0.000000000000000
        0.000000000000000
        0.000000000000000
        0.000000000000448
        0.000000000000043
       -0.000000000000422
       -0.000000000000663
       -0.000000000000182
        0.000000000000006
        0.000000000000000
        0.000000000000000
        0.000000000000000
        0.000000000000000
        0.000000000000000
       -0.000000000000111
        0.000000000000032
        0.000000000000000
        0.000000000000000
        0.000000000000000
        0.000000000000000
        0.000000000000000
        0.000000000000000
        0.000000000000000
        0.000000000000000
        0.000000000000000
        0.000000000000000
        0.000000000000000
        0.000000000000000
        0.000000000000000
        0.000000000000000
       -0.000000000000274
        0.000000000000598
       -0.000000000000931
        0.000000000000305
        0.000000000000000
        0.000000000000000
        0.000000000000000
        0.000000000000000
       -0.000000000000322
        0.000000000001362
       -0.000000000006138
        0.000000000002492
       -0.000000000000750
        0.000000000001214
        0.000000000000000
        0.000000000000000
        0.000000000000000
        0.000000000001234
       -0.000000000015696
       -0.000000000048241
        0.000000000023586
        0.000000000011784
       -0.000000000001501
        0.000000000000492
        0.000000000000000
        0.000000000000000
       -0.000000000000595
       -0.000000000001429
       -0.000000000033402
        0.000000000151884
        0.000000000047206
        0.000000000005683
       -0.000000000001108
        0.000000000000000
        0.000000000000000
        0.000000000000407
       -0.000000000000103
       -0.000000000006002
       -0.000000000009789
       -0.000000000025334
        0.000000000005079
       -0.000000000000175
        0.000000000000000
        0.000000000000000
        0.000000000000000
        0.000000000001746
       -0.000000000000854
        0.000000000001762
       -0.000000000004483
        0.000000000001513
       -0.000000000000376
        0.000000000000000
        0.000000000000000
        0.000000000000000
        0.000000000000000
        0.000000000000594
       -0.000000000000772
        0.000000000000461
       -0.000000000000425
        0.000000000000000
        0.000000000000000
        0.000000000000000
        0.000000000000000
        0.000000000000000
        0.000000000000000
        0.000000000000000
        0.000000000000000
        0.000000000000000
        0.000000000000000
        0.000000000000000
        0.000000000000000
        0.000000000000000
        0.000000000000000
        0.000000000000000
        0.000000000000000
        0.000000000000000
        0.000000000000000
        0.000000000000000
        0.000000000000000
        0.000000000000000
        0.000000000000000
        0.000000000000000
       -0.000000000000230
       -0.000000000000267
        0.000000000000000
        0.000000000000000
        0.000000000000000
        0.000000000000000
        0.000000000000000
        0.000000000000000
       -0.000000000000524
        0.000000000000759
       -0.000000000000967
        0.000000000000344
        0.000000000000000
        0.000000000000000
        0.000000000000000
        0.000000000000000
       -0.000000000000354
        0.000000000001382
       -0.000000000000226
       -0.000000000001208
       -0.000000000001279
        0.000000000000435
        0.000000000000000
        0.000000000000000
        0.000000000000000
       -0.000000000000202
       -0.000000000000866
        0.000000000001996
       -0.000000000008555
       -0.000000000002257
       -0.000000000001181
       -0.000000000000167
        0.000000000000000
        0.000000000000000
        0.000000000000000
        0.000000000000669
       -0.000000000000505
        0.000000000000948
       -0.000000000001415
        0.000000000000217
       -0.000000000000257
        0.000000000000000
        0.000000000000000
        0.000000000000000
        0.000000000000000
        0.000000000000760
       -0.000000000001080
        0.000000000000840
       -0.000000000000776
        0.000000000000000
        0.000000000000000
        0.000000000000000
        0.000000000000000
        0.000000000000000
        0.000000000000000
       -0.000000000000102
       -0.000000000000381
        0.000000000000000
        0.000000000000000
        0.000000000000000
        0.000000000000000
        0.000000000000000
        0.000000000000000
        0.000000000000000
        0.000000000000000
        0.000000000000000
        0.000000000000000
        0.000000000000000
        0.000000000000000
        0.000000000000000
        0.000000000000000
        0.000000000000000
        0.000000000000000
        0.000000000000000
        0.000000000000000
        0.000000000000000
        0.000000000000000
        0.000000000000000
        0.000000000000000
        0.000000000000000
        0.000000000000000
        0.000000000000000
        0.000000000000000
        0.000000000000000
        0.000000000000000
        0.000000000000000
        0.000000000000000
        0.000000000000000
        0.000000000000000
        0.000000000000000
        0.000000000000000
        0.000000000000000
        0.000000000000000
        0.000000000000000
        0.000000000000000
        0.000000000000000
        0.000000000000000
        0.000000000000000
        0.000000000000000
        0.000000000000379
       -0.000000000000131
        0.000000000000000
        0.000000000000000
        0.000000000000000
        0.000000000000000
        0.000000000000000
        0.000000000000000
        0.000000000000000
        0.000000000000004
        0.000000000000860
       -0.000000000000063
        0.000000000000000
        0.000000000000000
        0.000000000000000
        0.000000000000000
        0.000000000000000
        0.000000000000000
        0.000000000000000
        0.000000000000072
        0.000000000000235
        0.000000000000000
        0.000000000000000
        0.000000000000000
        0.000000000000000
        0.000000000000000
        0.000000000000000
        0.000000000000000
        0.000000000000000
        0.000000000000000
        0.000000000000000
        0.000000000000000
        0.000000000000000
        0.000000000000000
        0.000000000000000
        0.000000000000000
        0.000000000000000
        0.000000000000000
        0.000000000000000
        0.000000000000000
        0.000000000000000
        0.000000000000000
        0.000000000000000
        0.000000000000000
        0.000000000000000
        0.000000000000000
        0.000000000000000
        0.000000000000000
        0.000000000000000
        0.000000000000000
        0.000000000000000
END_DATAGRID_3D
END_BLOCK_DATAGRID_3D
