ATOMS
         C    7.558905    7.558905    7.558905
         H    8.755769    8.755769    8.755769
         H    6.362040    6.362040    8.755769
         H    8.755769    6.362040    6.362040
         H    6.362040    8.755769    6.362040
BEGIN_BLOCK_DATAGRID_3D
units: coords = b, function = sqrt(b^-3)
BEGIN_DATAGRID_3D_function
      9      9      9
0.0 0.0 0.0
   15.117809    0.000000    0.000000
    0.000000   15.117809    0.000000
    0.000000    0.000000   15.117809
        0.000000000000000
        0.000000000000000
        0.000000000000000
        0.000000000000000
        0.000000000000000
        0.000000000000000
        0.000000000000000
        0.000000000000000
        0.000000000000000
        0.000000000000000
        0.000000000000000
        0.000000000000000
        0.000000000000000
        0.000000000000000
        0.000000000000000
        0.000000000000000
        0.000000000000000
        0.000000000000000
        0.000000000000000
        0.000000000000000
        0.000000000000000
        0.000000000000000
        0.000000000000000
        0.000000000000000
        0.000000000000000
        0.000000000000000
        0.000000000000000
        0.000000000000000
        0.000000000000000
        0.000000000000000
        0.000000000000000
        0.000769739767246
        0.000536446829974
        0.000000000000000
        0.000000000000000
        0.000000000000000
        0.000000000000000
        0.000000000000000
        0.000000000000000
        0.001229860862926
        0.001539564589264
        0.000835639559526
        0.000000000000000
        0.000000000000000
        0.000000000000000
        0.000000000000000
        0.000000000000000
        0.000000000000000
        0.001224767632796
        0.001295760383555
        0.000000000000000
        0.000000000000000
        0.000000000000000
        0.000000000000000
        0.000000000000000
        0.000000000000000
        0.000000000000000
        0.000000000000000
        0.000000000000000
        0.000000000000000
        0.000000000000000
        0.000000000000000
        0.000000000000000
        0.000000000000000
        0.000000000000000
        0.000000000000000
        0.000000000000000
        0.000000000000000
        0.000000000000000
        0.000000000000000
        0.000000000000000
        0.000000000000000
        0.000000000000000
        0.000000000000000
        0.000000000000000
        0.000000000000000
        0.000000000000000
        0.000000000000000
        0.000000000000000
        0.000000000000000
        0.000000000000000
        0.000000000000000
        0.000000000000000
        0.000000000000000
        0.000000000000000
        0.000000000000000
        0.000000000000000
        0.000000000000000
        0.000000000000000
        0.000000000000000
        0.000000000000000
        0.000000000000000
        0.000000000000000
        0.000000000000000
        0.000024163027599
       -0.000044665849817
        0.000000000000000
        0.000000000000000
        0.000000000000000
        0.000000000000000
        0.000000000000000
        0.000000000000000
        0.000881294166799
        0.000961838538341
        0.000416388851626
        0.000046782859269
        0.000000000000000
        0.000000000000000
        0.000000000000000
        0.000000000000000
        0.001831687338266
        0.003854995104896
        0.004383053056926
        0.002426432910831
        0.000657488707626
        0.000087455970007
        0.000000000000000
        0.000000000000000
        0.001119998708045
        0.003949751146673
        0.008025959232214
        0.008933952894856
        0.005065587755953
        0.001551587338876
        0.000237919748080
        0.000000000000000
        0.000000000000000
        0.001184616169323
        0.004181336878033
        0.008220645790740
        0.008708490051696
        0.004801252172288
        0.001422951438617
        0.000000000000000
        0.000000000000000
        0.000000000000000
        0.000000000000000
        0.002198029175739
        0.004422432839552
        0.004539493707781
        0.002373341948959
        0.000000000000000
        0.000000000000000
        0.000000000000000
        0.000000000000000
        0.000000000000000
        0.000000000000000
        0.001316735162974
        0.001333752436002
        0.000000000000000
        0.000000000000000
        0.000000000000000
        0.000000000000000
        0.000000000000000
        0.000000000000000
        0.000000000000000
        0.000000000000000
        0.000000000000000
        0.000000000000000
        0.000000000000000
        0.000000000000000
        0.000000000000000
        0.000000000000000
        0.000000000000000
        0.000000000000000
        0.000000000000000
        0.000000000000000
        0.000000000000000
        0.000000000000000
        0.000000000000000
        0.000000000000000
        0.000000000000000
        0.000000000000000
        0.000000000000000
       -0.000272220920853
       -0.000688947552395
       -0.000810045981757
       -0.000470075909141
        0.000000000000000
        0.000000000000000
        0.000000000000000
        0.000000000000000
        0.000895641042667
        0.001436616020710
        0.000530436274084
       -0.001031926231738
       -0.000950350141624
       -0.000350464906326
        0.000000000000000
        0.000000000000000
        0.001472577830610
        0.005584683265397
        0.011985899288431
        0.012966192307142
        0.004045942314214
        0.000066098207430
       -0.000285125287785
        0.000000000000000
        0.000000000000000
        0.003435833287885
        0.013713527554089
        0.034100519246691
        0.040909506549032
        0.017387761903485
        0.003461626531832
        0.000282826010384
        0.000000000000000
        0.000000000000000
        0.003799527851400
        0.015303064652509
        0.037126838643353
        0.038522069429605
        0.017203040764034
        0.004263630518200
        0.000536383122364
        0.000000000000000
        0.000000000000000
        0.002037123241994
        0.007850676036150
        0.016401075209955
        0.016644693572644
        0.008411686108688
        0.002239201793206
        0.000000000000000
        0.000000000000000
        0.000000000000000
        0.000000000000000
        0.002156731571659
        0.004324439538381
        0.004407594707286
        0.002281175462928
        0.000000000000000
        0.000000000000000
        0.000000000000000
        0.000000000000000
        0.000000000000000
        0.000000000000000
        0.000000000000000
        0.000000000000000
        0.000000000000000
        0.000000000000000
        0.000000000000000
        0.000000000000000
        0.000000000000000
        0.000000000000000
        0.000000000000000
        0.000000000000000
       -0.000666493258753
       -0.000594718177899
        0.000000000000000
        0.000000000000000
        0.000000000000000
        0.000000000000000
        0.000000000000000
       -0.000701846797724
       -0.002116295016749
       -0.003620332076440
       -0.003226128209720
       -0.001610783122293
       -0.000483465910154
        0.000000000000000
        0.000000000000000
        0.000092558521339
       -0.000438518692192
       -0.003771219744483
       -0.009815225915472
       -0.010062910782112
       -0.004678660302476
       -0.001326962458770
        0.000000000000000
        0.000000000000000
        0.001996024853493
        0.007080418790319
        0.013669651111108
        0.004926517572016
       -0.013132637034058
       -0.006797859606823
       -0.001918017455993
       -0.000332944582982
        0.000782736890145
        0.005534366286596
        0.027008251067939
        0.087537758141373
        0.108524833340290
        0.025698784091264
       -0.000121604624847
       -0.001085657818770
       -0.000268220992848
        0.000872617259414
        0.006460910503775
        0.032734500363397
        0.108486158043462
        0.108309959242907
        0.034175737442087
        0.005092425746181
        0.000211838393192
        0.000000000000000
        0.000000000000000
        0.003716283626984
        0.014923953055424
        0.035999528367104
        0.036701817713138
        0.015944038745859
        0.003782374873807
        0.000426119466788
        0.000000000000000
        0.000000000000000
        0.001138998723908
        0.004000099338230
        0.007769000870568
        0.008069013797331
        0.004324143069858
        0.001220521275539
        0.000000000000000
        0.000000000000000
        0.000000000000000
        0.000000000000000
        0.000000000000000
        0.001134386535023
        0.001181004230044
        0.000000000000000
        0.000000000000000
        0.000000000000000
        0.000000000000000
        0.000000000000000
        0.000000000000000
        0.000000000000000
       -0.000874491881858
       -0.001311742862989
       -0.000885359554922
        0.000000000000000
        0.000000000000000
        0.000000000000000
        0.000000000000000
       -0.000471210301574
       -0.002039636775680
       -0.005267113266979
       -0.007611923929432
       -0.005887167646950
       -0.002647617032891
       -0.000685762182249
        0.000000000000000
        0.000000000000000
       -0.000902769765637
       -0.005428989856674
       -0.019369021182002
       -0.034855794841082
       -0.024500094588209
       -0.009204585067026
       -0.002265593110436
        0.000000000000000
        0.000114616790141
        0.000244674793865
       -0.003679874564584
       -0.032417950965712
       -0.092465516654080
       -0.064061929977484
       -0.019228045214062
       -0.004035029694188
       -0.000552987095863
        0.000651902212035
        0.003782924672593
        0.017322369841162
        0.045952797795332
        0.000000043098624
       -0.045952632888154
       -0.017322291682854
       -0.003782890987977
       -0.000651894886779
        0.000759983685564
        0.005298707338102
        0.025481625550194
        0.080365799984725
        0.092465560971407
        0.016114256716160
       -0.002573596837595
       -0.001508304377005
       -0.000321603735651
        0.000000000000000
        0.003232211099933
        0.012701482956586
        0.030753641820844
        0.034855804886465
        0.013115517687948
        0.001932133439840
       -0.000063828680967
        0.000000000000000
        0.000000000000000
        0.001046195267510
        0.003614229890013
        0.007150823898221
        0.007611925503776
        0.004003464607395
        0.001073033546665
        0.000110782032750
        0.000000000000000
        0.000000000000000
        0.000000000000000
        0.000000000000000
        0.001092351503156
        0.001311743089008
        0.000667500631198
        0.000000000000000
        0.000000000000000
        0.000000000000000
        0.000000000000000
        0.000000000000000
        0.000000000000000
       -0.000905874988626
       -0.001093358358865
        0.000000000000000
        0.000000000000000
        0.000000000000000
        0.000000000000000
        0.000000000000000
       -0.000600364198734
       -0.002511996659119
       -0.005845413211312
       -0.007533949936812
       -0.005259014335639
       -0.002071172528272
        0.000000000000000
        0.000000000000000
        0.000000000000000
       -0.001667372914395
       -0.008416179258748
       -0.025017181101143
       -0.034053899213627
       -0.021098378384260
       -0.007952436982790
       -0.001804226550208
        0.000000000000000
       -0.000126861586171
       -0.001952596681730
       -0.015300667069627
       -0.068110569586471
       -0.101406452306955
       -0.054434894094816
       -0.017451879424185
       -0.003877142333264
        0.000000000000000
        0.000091863585560
        0.000009015845372
       -0.005206500082329
       -0.039589909122359
       -0.108524789022962
       -0.073646457352587
       -0.021680037426809
       -0.004457676252424
       -0.000606369838666
        0.000000000000000
        0.001669309732016
        0.005279103339459
        0.006589585056766
       -0.011829968926623
       -0.027242806564594
       -0.010635887693533
       -0.002590256833454
       -0.000412802882574
        0.000000000000000
        0.001285559961857
        0.004608605574924
        0.008925581403251
        0.007167321561591
       -0.000919396137548
       -0.001829076796273
       -0.000721931036222
        0.000000000000000
        0.000000000000000
        0.000000000000000
        0.001552502918603
        0.003051170528283
        0.003085270602206
        0.001302547857608
        0.000122689488977
       -0.000055164098031
        0.000000000000000
        0.000000000000000
        0.000000000000000
        0.000000000000000
        0.000000000000000
        0.000578847624711
        0.000366207331455
        0.000000000000000
        0.000000000000000
        0.000000000000000
        0.000000000000000
        0.000000000000000
        0.000000000000000
        0.000000000000000
        0.000000000000000
        0.000000000000000
        0.000000000000000
        0.000000000000000
        0.000000000000000
        0.000000000000000
        0.000000000000000
       -0.001442551042440
       -0.003312734967040
       -0.003998308201906
       -0.002500799528025
        0.000000000000000
        0.000000000000000
        0.000000000000000
        0.000000000000000
       -0.001086599812680
       -0.004928869222407
       -0.012062919555797
       -0.015164022454848
       -0.009827577509752
       -0.003566587332018
        0.000000000000000
        0.000000000000000
        0.000000000000000
       -0.001750617138812
       -0.008795290855832
       -0.026144491377392
       -0.035874150930094
       -0.022357380402435
       -0.008433692627183
       -0.001914490205784
        0.000000000000000
        0.000000000000000
       -0.001106391953589
       -0.006441034454177
       -0.022715898607848
       -0.040909496503648
       -0.028772338803745
       -0.010734078159018
       -0.002612247801787
        0.000000000000000
        0.000000000000000
       -0.000094459347413
       -0.001414596382665
       -0.006831537629663
       -0.015614096661023
       -0.015028249233873
       -0.006573835306180
       -0.001763768207207
        0.000000000000000
        0.000000000000000
        0.000000000000000
        0.000431752032783
       -0.000020717790697
       -0.002011102475736
       -0.003306213459665
       -0.001971439513521
       -0.000600050639177
        0.000000000000000
        0.000000000000000
        0.000000000000000
        0.000000000000000
        0.000491845943906
        0.000279662139516
       -0.000201654828421
       -0.000244100608724
        0.000000000000000
        0.000000000000000
        0.000000000000000
        0.000000000000000
        0.000000000000000
        0.000000000000000
        0.000000000000000
        0.000000000000000
        0.000000000000000
        0.000000000000000
        0.000000000000000
        0.000000000000000
        0.000000000000000
        0.000000000000000
        0.000000000000000
        0.000000000000000
        0.000000000000000
        0.000000000000000
        0.000000000000000
        0.000000000000000
        0.000000000000000
        0.000000000000000
        0.000000000000000
       -0.001039164975365
       -0.001181136916373
        0.000000000000000
        0.000000000000000
        0.000000000000000
        0.000000000000000
        0.000000000000000
        0.000000000000000
       -0.001483848646520
       -0.003410728268212
       -0.004130207202402
       -0.002592966014056
        0.000000000000000
        0.000000000000000
        0.000000000000000
        0.000000000000000
       -0.000645981644148
       -0.002693234198922
       -0.006297058131485
       -0.008173426191176
       -0.005736123438069
       -0.002273602691350
        0.000000000000000
        0.000000000000000
        0.000000000000000
       -0.000545013742110
       -0.002375158032339
       -0.006142248600972
       -0.008933951320511
       -0.006949290795508
       -0.003126170825102
       -0.000812899897579
        0.000000000000000
        0.000000000000000
        0.000000000000000
       -0.000981031217387
       -0.002920119593361
       -0.004918114531160
       -0.004350013262943
       -0.002145582340943
       -0.000626085978192
        0.000000000000000
        0.000000000000000
        0.000000000000000
        0.000000000000000
       -0.000661669143746
       -0.001371123951220
       -0.001428089661804
       -0.000760959377135
        0.000000000000000
        0.000000000000000
        0.000000000000000
        0.000000000000000
        0.000000000000000
        0.000000000000000
       -0.000176778259213
       -0.000232903535264
        0.000000000000000
        0.000000000000000
        0.000000000000000
        0.000000000000000
        0.000000000000000
        0.000000000000000
        0.000000000000000
        0.000000000000000
        0.000000000000000
        0.000000000000000
        0.000000000000000
        0.000000000000000
        0.000000000000000
        0.000000000000000
        0.000000000000000
        0.000000000000000
        0.000000000000000
        0.000000000000000
        0.000000000000000
        0.000000000000000
        0.000000000000000
        0.000000000000000
        0.000000000000000
        0.000000000000000
        0.000000000000000
        0.000000000000000
        0.000000000000000
        0.000000000000000
        0.000000000000000
        0.000000000000000
        0.000000000000000
        0.000000000000000
        0.000000000000000
        0.000000000000000
        0.000000000000000
        0.000000000000000
        0.000000000000000
        0.000000000000000
        0.000000000000000
        0.000000000000000
        0.000000000000000
        0.000000000000000
       -0.000996256086399
       -0.001208114512376
        0.000000000000000
        0.000000000000000
        0.000000000000000
        0.000000000000000
        0.000000000000000
        0.000000000000000
        0.000000000000000
       -0.001012001241628
       -0.001539564363244
       -0.001053498483251
        0.000000000000000
        0.000000000000000
        0.000000000000000
        0.000000000000000
        0.000000000000000
        0.000000000000000
        0.000000000000000
       -0.000857385401288
       -0.000764957676419
        0.000000000000000
        0.000000000000000
        0.000000000000000
        0.000000000000000
        0.000000000000000
        0.000000000000000
        0.000000000000000
        0.000000000000000
        0.000000000000000
        0.000000000000000
        0.000000000000000
        0.000000000000000
        0.000000000000000
        0.000000000000000
        0.000000000000000
        0.000000000000000
        0.000000000000000
        0.000000000000000
        0.000000000000000
        0.000000000000000
        0.000000000000000
        0.000000000000000
        0.000000000000000
        0.000000000000000
        0.000000000000000
        0.000000000000000
        0.000000000000000
        0.000000000000000
        0.000000000000000
        0.000000000000000
END_DATAGRID_3D
END_BLOCK_DATAGRID_3D
