ATOMS
         C    7.558905    7.558905    7.558905
         H    8.755769    8.755769    8.755769
         H    6.362040    6.362040    8.755769
         H    8.755769    6.362040    6.362040
         H    6.362040    8.755769    6.362040
BEGIN_BLOCK_DATAGRID_3D
units: coords = b, function = 1/hbar/H*b^-2
BEGIN_DATAGRID_3D_function
      9      9      9
0.0 0.0 0.0
   15.117809    0.000000    0.000000
    0.000000   15.117809    0.000000
    0.000000    0.000000   15.117809
        0.000000000000000
        0.000000000000000
        0.000000000000000
        0.000000000000000
        0.000000000000000
        0.000000000000000
        0.000000000000000
        0.000000000000000
        0.000000000000000
        0.000000000000000
        0.000000000000000
        0.000000000000000
        0.000000000000000
        0.000000000000000
        0.000000000000000
        0.000000000000000
        0.000000000000000
        0.000000000000000
        0.000000000000000
        0.000000000000000
        0.000000000000000
        0.000000000000000
        0.000000000000000
        0.000000000000000
        0.000000000000000
        0.000000000000000
        0.000000000000000
        0.000000000000000
        0.000000000000000
        0.000000000000000
        0.000000000000000
       -0.000000000193295
        0.000000000132378
        0.000000000000000
        0.000000000000000
        0.000000000000000
        0.000000000000000
        0.000000000000000
        0.000000000000000
       -0.000000000085154
       -0.000000000002619
        0.000000000083746
        0.000000000000000
        0.000000000000000
        0.000000000000000
        0.000000000000000
        0.000000000000000
        0.000000000000000
       -0.000000000134434
        0.000000000191874
        0.000000000000000
        0.000000000000000
        0.000000000000000
        0.000000000000000
        0.000000000000000
        0.000000000000000
        0.000000000000000
        0.000000000000000
        0.000000000000000
        0.000000000000000
        0.000000000000000
        0.000000000000000
        0.000000000000000
        0.000000000000000
        0.000000000000000
        0.000000000000000
        0.000000000000000
        0.000000000000000
        0.000000000000000
        0.000000000000000
        0.000000000000000
        0.000000000000000
        0.000000000000000
        0.000000000000000
        0.000000000000000
        0.000000000000000
        0.000000000000000
        0.000000000000000
        0.000000000000000
        0.000000000000000
        0.000000000000000
        0.000000000000000
        0.000000000000000
        0.000000000000000
        0.000000000000000
        0.000000000000000
        0.000000000000000
        0.000000000000000
        0.000000000000000
        0.000000000000000
        0.000000000000000
        0.000000000000000
        0.000000000000000
        0.000000000000000
       -0.000000000143480
        0.000000000134076
        0.000000000000000
        0.000000000000000
        0.000000000000000
        0.000000000000000
        0.000000000000000
        0.000000000000000
       -0.000000000378502
        0.000000000057788
       -0.000000000053653
        0.000000000245648
        0.000000000000000
        0.000000000000000
        0.000000000000000
        0.000000000000000
       -0.000000000231045
       -0.000000000741538
       -0.000000001951118
        0.000000001148553
        0.000000000994388
       -0.000000000069860
        0.000000000000000
        0.000000000000000
        0.000000000034708
       -0.000000000357807
       -0.000000003703976
        0.000000000029657
        0.000000003718308
        0.000000000363665
       -0.000000000031998
        0.000000000000000
        0.000000000000000
        0.000000000071704
       -0.000000000993830
       -0.000000001144678
        0.000000001962532
        0.000000000745647
        0.000000000228282
        0.000000000000000
        0.000000000000000
        0.000000000000000
        0.000000000000000
       -0.000000000242777
        0.000000000052830
       -0.000000000052071
        0.000000000375670
        0.000000000000000
        0.000000000000000
        0.000000000000000
        0.000000000000000
        0.000000000000000
        0.000000000000000
       -0.000000000132259
        0.000000000146044
        0.000000000000000
        0.000000000000000
        0.000000000000000
        0.000000000000000
        0.000000000000000
        0.000000000000000
        0.000000000000000
        0.000000000000000
        0.000000000000000
        0.000000000000000
        0.000000000000000
        0.000000000000000
        0.000000000000000
        0.000000000000000
        0.000000000000000
        0.000000000000000
        0.000000000000000
        0.000000000000000
        0.000000000000000
        0.000000000000000
        0.000000000000000
        0.000000000000000
        0.000000000000000
        0.000000000000000
        0.000000000000000
       -0.000000000264125
       -0.000000000160700
        0.000000000128744
        0.000000000146590
        0.000000000000000
        0.000000000000000
        0.000000000000000
        0.000000000000000
       -0.000000000504923
        0.000000000081857
        0.000000000895839
       -0.000000001436246
       -0.000000000312844
        0.000000000070706
        0.000000000000000
        0.000000000000000
        0.000000000050871
       -0.000000001222391
        0.000000017167142
        0.000000031480493
       -0.000000022003350
       -0.000000019166625
        0.000000001219017
        0.000000000000000
        0.000000000000000
       -0.000000000551139
        0.000000007546462
        0.000000074237718
       -0.000000000664568
       -0.000000074462714
       -0.000000007560283
        0.000000000559872
        0.000000000000000
        0.000000000000000
       -0.000000001214947
        0.000000019177852
        0.000000022469803
       -0.000000031600994
       -0.000000017222178
        0.000000001223701
       -0.000000000053062
        0.000000000000000
        0.000000000000000
       -0.000000000069233
        0.000000000306028
        0.000000001499319
       -0.000000000894102
       -0.000000000086147
        0.000000000494901
        0.000000000000000
        0.000000000000000
        0.000000000000000
        0.000000000000000
       -0.000000000145775
       -0.000000000129838
        0.000000000166559
        0.000000000261226
        0.000000000000000
        0.000000000000000
        0.000000000000000
        0.000000000000000
        0.000000000000000
        0.000000000000000
        0.000000000000000
        0.000000000000000
        0.000000000000000
        0.000000000000000
        0.000000000000000
        0.000000000000000
        0.000000000000000
        0.000000000000000
        0.000000000000000
        0.000000000000000
       -0.000000000076715
        0.000000000005301
        0.000000000000000
        0.000000000000000
        0.000000000000000
        0.000000000000000
        0.000000000000000
       -0.000000000167313
       -0.000000000371273
        0.000000000185650
       -0.000000000205106
        0.000000000218618
       -0.000000000000370
        0.000000000000000
        0.000000000000000
       -0.000000000067603
       -0.000000000284902
        0.000000003541920
       -0.000000002148539
       -0.000000006465901
       -0.000000000935802
        0.000000000067704
        0.000000000000000
        0.000000000000000
       -0.000000001176355
        0.000000015338862
        0.000000054341995
       -0.000000088846519
       -0.000000171233320
       -0.000000011419321
        0.000000000835203
        0.000000000005667
        0.000000000006547
       -0.000000003549751
        0.000000063159697
        0.000000284940634
       -0.000000001527523
       -0.000000287089101
       -0.000000063291934
        0.000000003577540
       -0.000000000005758
       -0.000000000005504
       -0.000000000820772
        0.000000011479709
        0.000000169753475
        0.000000087495894
       -0.000000054670977
       -0.000000015370789
        0.000000001180752
        0.000000000000000
        0.000000000000000
       -0.000000000065518
        0.000000000959077
        0.000000006515451
        0.000000002190302
       -0.000000003540941
        0.000000000276846
        0.000000000066199
        0.000000000000000
        0.000000000000000
        0.000000000000008
       -0.000000000217217
        0.000000000215196
       -0.000000000174931
        0.000000000370365
        0.000000000165316
        0.000000000000000
        0.000000000000000
        0.000000000000000
        0.000000000000000
        0.000000000000000
       -0.000000000005123
        0.000000000077446
        0.000000000000000
        0.000000000000000
        0.000000000000000
        0.000000000000000
        0.000000000000000
        0.000000000000000
        0.000000000000000
        0.000000000005123
       -0.000000000228204
        0.000000000005301
        0.000000000000000
        0.000000000000000
        0.000000000000000
        0.000000000000000
       -0.000000000000008
       -0.000000000280698
        0.000000000154905
       -0.000000000145433
        0.000000000165602
       -0.000000000277481
       -0.000000000000370
        0.000000000000000
        0.000000000000000
       -0.000000000143918
        0.000000000969934
       -0.000000002373104
       -0.000000006218965
       -0.000000002407341
        0.000000000994471
       -0.000000000141895
        0.000000000000000
        0.000000000005504
       -0.000000002275175
        0.000000032072212
       -0.000000091654246
       -0.000000219688702
       -0.000000093232751
        0.000000032156044
       -0.000000002270422
        0.000000000005667
       -0.000000000000000
       -0.000000000000000
        0.000000000000000
        0.000000000000000
       -0.000000000000000
       -0.000000000000000
       -0.000000000000000
        0.000000000000000
       -0.000000000000000
       -0.000000000005504
        0.000000002275175
       -0.000000032072212
        0.000000091654246
        0.000000219688702
        0.000000093232751
       -0.000000032156044
        0.000000002270422
       -0.000000000005667
        0.000000000000000
        0.000000000143918
       -0.000000000969934
        0.000000002373104
        0.000000006218965
        0.000000002407341
       -0.000000000994471
        0.000000000141895
        0.000000000000000
        0.000000000000000
        0.000000000000008
        0.000000000280698
       -0.000000000154905
        0.000000000145433
       -0.000000000165602
        0.000000000277481
        0.000000000000370
        0.000000000000000
        0.000000000000000
        0.000000000000000
        0.000000000000000
       -0.000000000005123
        0.000000000228204
       -0.000000000005301
        0.000000000000000
        0.000000000000000
        0.000000000000000
        0.000000000000000
        0.000000000000000
        0.000000000000000
        0.000000000005123
       -0.000000000077446
        0.000000000000000
        0.000000000000000
        0.000000000000000
        0.000000000000000
        0.000000000000000
       -0.000000000000008
        0.000000000217217
       -0.000000000215196
        0.000000000174931
       -0.000000000370365
       -0.000000000165316
        0.000000000000000
        0.000000000000000
        0.000000000000000
        0.000000000065518
       -0.000000000959077
       -0.000000006515451
       -0.000000002190302
        0.000000003540941
       -0.000000000276846
       -0.000000000066199
        0.000000000000000
        0.000000000005504
        0.000000000820772
       -0.000000011479709
       -0.000000169753475
       -0.000000087495894
        0.000000054670977
        0.000000015370789
       -0.000000001180752
        0.000000000000000
       -0.000000000006547
        0.000000003549751
       -0.000000063159697
       -0.000000284940634
        0.000000001527523
        0.000000287089101
        0.000000063291934
       -0.000000003577540
        0.000000000005758
        0.000000000000000
        0.000000001176355
       -0.000000015338862
       -0.000000054341995
        0.000000088846519
        0.000000171233320
        0.000000011419321
       -0.000000000835203
       -0.000000000005667
        0.000000000000000
        0.000000000067603
        0.000000000284902
       -0.000000003541920
        0.000000002148539
        0.000000006465901
        0.000000000935802
       -0.000000000067704
        0.000000000000000
        0.000000000000000
        0.000000000000000
        0.000000000167313
        0.000000000371273
       -0.000000000185650
        0.000000000205106
       -0.000000000218618
        0.000000000000370
        0.000000000000000
        0.000000000000000
        0.000000000000000
        0.000000000000000
        0.000000000000000
        0.000000000076715
       -0.000000000005301
        0.000000000000000
        0.000000000000000
        0.000000000000000
        0.000000000000000
        0.000000000000000
        0.000000000000000
        0.000000000000000
        0.000000000000000
        0.000000000000000
        0.000000000000000
        0.000000000000000
        0.000000000000000
        0.000000000000000
        0.000000000000000
        0.000000000145775
        0.000000000129838
       -0.000000000166559
       -0.000000000261226
        0.000000000000000
        0.000000000000000
        0.000000000000000
        0.000000000000000
        0.000000000069233
       -0.000000000306028
       -0.000000001499319
        0.000000000894102
        0.000000000086147
       -0.000000000494901
        0.000000000000000
        0.000000000000000
        0.000000000000000
        0.000000001214947
       -0.000000019177852
       -0.000000022469803
        0.000000031600994
        0.000000017222178
       -0.000000001223701
        0.000000000053062
        0.000000000000000
        0.000000000000000
        0.000000000551139
       -0.000000007546462
       -0.000000074237718
        0.000000000664568
        0.000000074462714
        0.000000007560283
       -0.000000000559872
        0.000000000000000
        0.000000000000000
       -0.000000000050871
        0.000000001222391
       -0.000000017167142
       -0.000000031480493
        0.000000022003350
        0.000000019166625
       -0.000000001219017
        0.000000000000000
        0.000000000000000
        0.000000000000000
        0.000000000504923
       -0.000000000081857
       -0.000000000895839
        0.000000001436246
        0.000000000312844
       -0.000000000070706
        0.000000000000000
        0.000000000000000
        0.000000000000000
        0.000000000000000
        0.000000000264125
        0.000000000160700
       -0.000000000128744
       -0.000000000146590
        0.000000000000000
        0.000000000000000
        0.000000000000000
        0.000000000000000
        0.000000000000000
        0.000000000000000
        0.000000000000000
        0.000000000000000
        0.000000000000000
        0.000000000000000
        0.000000000000000
        0.000000000000000
        0.000000000000000
        0.000000000000000
        0.000000000000000
        0.000000000000000
        0.000000000000000
        0.000000000000000
        0.000000000000000
        0.000000000000000
        0.000000000000000
        0.000000000000000
        0.000000000000000
        0.000000000132259
       -0.000000000146044
        0.000000000000000
        0.000000000000000
        0.000000000000000
        0.000000000000000
        0.000000000000000
        0.000000000000000
        0.000000000242777
       -0.000000000052830
        0.000000000052071
       -0.000000000375670
        0.000000000000000
        0.000000000000000
        0.000000000000000
        0.000000000000000
       -0.000000000071704
        0.000000000993830
        0.000000001144678
       -0.000000001962532
       -0.000000000745647
       -0.000000000228282
        0.000000000000000
        0.000000000000000
        0.000000000000000
       -0.000000000034708
        0.000000000357807
        0.000000003703976
       -0.000000000029657
       -0.000000003718308
       -0.000000000363665
        0.000000000031998
        0.000000000000000
        0.000000000000000
        0.000000000000000
        0.000000000231045
        0.000000000741538
        0.000000001951118
       -0.000000001148553
       -0.000000000994388
        0.000000000069860
        0.000000000000000
        0.000000000000000
        0.000000000000000
        0.000000000000000
        0.000000000378502
       -0.000000000057788
        0.000000000053653
       -0.000000000245648
        0.000000000000000
        0.000000000000000
        0.000000000000000
        0.000000000000000
        0.000000000000000
        0.000000000000000
        0.000000000143480
       -0.000000000134076
        0.000000000000000
        0.000000000000000
        0.000000000000000
        0.000000000000000
        0.000000000000000
        0.000000000000000
        0.000000000000000
        0.000000000000000
        0.000000000000000
        0.000000000000000
        0.000000000000000
        0.000000000000000
        0.000000000000000
        0.000000000000000
        0.000000000000000
        0.000000000000000
        0.000000000000000
        0.000000000000000
        0.000000000000000
        0.000000000000000
        0.000000000000000
        0.000000000000000
        0.000000000000000
        0.000000000000000
        0.000000000000000
        0.000000000000000
        0.000000000000000
        0.000000000000000
        0.000000000000000
        0.000000000000000
        0.000000000000000
        0.000000000000000
        0.000000000000000
        0.000000000000000
        0.000000000000000
        0.000000000000000
        0.000000000000000
        0.000000000000000
        0.000000000000000
        0.000000000000000
        0.000000000000000
        0.000000000000000
        0.000000000134434
       -0.000000000191874
        0.000000000000000
        0.000000000000000
        0.000000000000000
        0.000000000000000
        0.000000000000000
        0.000000000000000
        0.000000000000000
        0.000000000085154
        0.000000000002619
       -0.000000000083746
        0.000000000000000
        0.000000000000000
        0.000000000000000
        0.000000000000000
        0.000000000000000
        0.000000000000000
        0.000000000000000
        0.000000000193295
       -0.000000000132378
        0.000000000000000
        0.000000000000000
        0.000000000000000
        0.000000000000000
        0.000000000000000
        0.000000000000000
        0.000000000000000
        0.000000000000000
        0.000000000000000
        0.000000000000000
        0.000000000000000
        0.000000000000000
        0.000000000000000
        0.000000000000000
        0.000000000000000
        0.000000000000000
        0.000000000000000
        0.000000000000000
        0.000000000000000
        0.000000000000000
        0.000000000000000
        0.000000000000000
        0.000000000000000
        0.000000000000000
        0.000000000000000
        0.000000000000000
        0.000000000000000
        0.000000000000000
        0.000000000000000
        0.000000000000000
END_DATAGRID_3D
END_BLOCK_DATAGRID_3D
