ATOMS
         C    7.558905    7.558905    7.558905
         H    8.755769    8.755769    8.755769
         H    6.362040    6.362040    8.755769
         H    8.755769    6.362040    6.362040
         H    6.362040    8.755769    6.362040
BEGIN_BLOCK_DATAGRID_3D
units: coords = b, function = sqrt(b^-3)
BEGIN_DATAGRID_3D_function
      9      9      9
0.0 0.0 0.0
   15.117809    0.000000    0.000000
    0.000000   15.117809    0.000000
    0.000000    0.000000   15.117809
        0.000000000000000
        0.000000000000000
        0.000000000000000
        0.000000000000000
        0.000000000000000
        0.000000000000000
        0.000000000000000
        0.000000000000000
        0.000000000000000
        0.000000000000000
        0.000000000000000
        0.000000000000000
        0.000000000000000
        0.000000000000000
        0.000000000000000
        0.000000000000000
        0.000000000000000
        0.000000000000000
        0.000000000000000
        0.000000000000000
        0.000000000000000
        0.000000000000000
        0.000000000000000
        0.000000000000000
        0.000000000000000
        0.000000000000000
        0.000000000000000
        0.000000000000000
        0.000000000000000
        0.000000000000000
        0.000000000000000
        0.000747673647298
        0.000520985625347
        0.000000000000000
        0.000000000000000
        0.000000000000000
        0.000000000000000
        0.000000000000000
        0.000000000000000
        0.001195085788981
        0.001495635376762
        0.000811562731778
        0.000000000000000
        0.000000000000000
        0.000000000000000
        0.000000000000000
        0.000000000000000
        0.000000000000000
        0.001190144350803
        0.001258911880908
        0.000000000000000
        0.000000000000000
        0.000000000000000
        0.000000000000000
        0.000000000000000
        0.000000000000000
        0.000000000000000
        0.000000000000000
        0.000000000000000
        0.000000000000000
        0.000000000000000
        0.000000000000000
        0.000000000000000
        0.000000000000000
        0.000000000000000
        0.000000000000000
        0.000000000000000
        0.000000000000000
        0.000000000000000
        0.000000000000000
        0.000000000000000
        0.000000000000000
        0.000000000000000
        0.000000000000000
        0.000000000000000
        0.000000000000000
        0.000000000000000
        0.000000000000000
        0.000000000000000
        0.000000000000000
        0.000000000000000
        0.000000000000000
        0.000000000000000
        0.000000000000000
        0.000000000000000
        0.000000000000000
        0.000000000000000
        0.000000000000000
        0.000000000000000
        0.000000000000000
        0.000000000000000
        0.000000000000000
        0.000000000000000
        0.000000000000000
        0.000023479316289
       -0.000043365986203
        0.000000000000000
        0.000000000000000
        0.000000000000000
        0.000000000000000
        0.000000000000000
        0.000000000000000
        0.000856390728906
        0.000934424756090
        0.000404403537204
        0.000045434954667
        0.000000000000000
        0.000000000000000
        0.000000000000000
        0.000000000000000
        0.001780588212149
        0.003746304741536
        0.004257987826285
        0.002356420945215
        0.000638309363536
        0.000084871992116
        0.000000000000000
        0.000000000000000
        0.001089162574191
        0.003839742765352
        0.007799684870396
        0.008679048581084
        0.004919368939090
        0.001506271062208
        0.000230892182644
        0.000000000000000
        0.000000000000000
        0.001151995289058
        0.004064898383906
        0.007988948498504
        0.008460083593232
        0.004662680990224
        0.001381430537523
        0.000000000000000
        0.000000000000000
        0.000000000000000
        0.000000000000000
        0.002136718004142
        0.004297817226077
        0.004410020336421
        0.002304962540481
        0.000000000000000
        0.000000000000000
        0.000000000000000
        0.000000000000000
        0.000000000000000
        0.000000000000000
        0.001279523451023
        0.001295829300884
        0.000000000000000
        0.000000000000000
        0.000000000000000
        0.000000000000000
        0.000000000000000
        0.000000000000000
        0.000000000000000
        0.000000000000000
        0.000000000000000
        0.000000000000000
        0.000000000000000
        0.000000000000000
        0.000000000000000
        0.000000000000000
        0.000000000000000
        0.000000000000000
        0.000000000000000
        0.000000000000000
        0.000000000000000
        0.000000000000000
        0.000000000000000
        0.000000000000000
        0.000000000000000
        0.000000000000000
        0.000000000000000
       -0.000264493120848
       -0.000669203632362
       -0.000786557908642
       -0.000456310158991
        0.000000000000000
        0.000000000000000
        0.000000000000000
        0.000000000000000
        0.000870675975955
        0.001396235727351
        0.000515571059520
       -0.001001822867648
       -0.000922442111773
       -0.000340068116098
        0.000000000000000
        0.000000000000000
        0.001432021073800
        0.005429053047297
        0.011647854259712
        0.012596689896240
        0.003929965389701
        0.000064375186087
       -0.000276641862809
        0.000000000000000
        0.000000000000000
        0.003341264489499
        0.013330931843957
        0.033138049947772
        0.039742768399305
        0.016887427254477
        0.003360785192197
        0.000274488203065
        0.000000000000000
        0.000000000000000
        0.003694959555271
        0.014875983030382
        0.036079876252373
        0.037424005615935
        0.016707497550858
        0.004139189319347
        0.000520556216480
        0.000000000000000
        0.000000000000000
        0.001981006229954
        0.007631888030259
        0.015938815517542
        0.016170110747752
        0.008169090275434
        0.002173902191469
        0.000000000000000
        0.000000000000000
        0.000000000000000
        0.000000000000000
        0.002096573177966
        0.004202589268454
        0.004281890176795
        0.002215455503962
        0.000000000000000
        0.000000000000000
        0.000000000000000
        0.000000000000000
        0.000000000000000
        0.000000000000000
        0.000000000000000
        0.000000000000000
        0.000000000000000
        0.000000000000000
        0.000000000000000
        0.000000000000000
        0.000000000000000
        0.000000000000000
        0.000000000000000
        0.000000000000000
       -0.000647368126271
       -0.000577551706181
        0.000000000000000
        0.000000000000000
        0.000000000000000
        0.000000000000000
        0.000000000000000
       -0.000682230116535
       -0.002056469803992
       -0.003516766914771
       -0.003132728404565
       -0.001563572897858
       -0.000469129534408
        0.000000000000000
        0.000000000000000
        0.000090025130785
       -0.000426114311792
       -0.003664150691545
       -0.009534045031356
       -0.009771526345039
       -0.004541669892021
       -0.001287604552018
        0.000000000000000
        0.000000000000000
        0.001941107579895
        0.006883019699737
        0.013285003267185
        0.004789075287031
       -0.012750376460872
       -0.006599200208810
       -0.001861028857988
       -0.000322942735668
        0.000761419282843
        0.005382308938304
        0.026252521874615
        0.085064791741344
        0.105431834579482
        0.024965565226846
       -0.000117496572405
       -0.001053376078876
       -0.000260109293466
        0.000848838410863
        0.006283508219106
        0.031817495738380
        0.105425201327498
        0.105225227716109
        0.033195137604624
        0.004944032268758
        0.000205659451185
        0.000000000000000
        0.000000000000000
        0.003614007695962
        0.014507456088717
        0.034984436542502
        0.035655773884671
        0.015484875176939
        0.003672013715439
        0.000413558513169
        0.000000000000000
        0.000000000000000
        0.001107633957241
        0.003888714789035
        0.007550055674273
        0.007838879599905
        0.004199371390512
        0.001184919909435
        0.000000000000000
        0.000000000000000
        0.000000000000000
        0.000000000000000
        0.000000000000000
        0.001102320999397
        0.001147421752903
        0.000000000000000
        0.000000000000000
        0.000000000000000
        0.000000000000000
        0.000000000000000
        0.000000000000000
        0.000000000000000
       -0.000849744118909
       -0.001274265808306
       -0.000859819532906
        0.000000000000000
        0.000000000000000
        0.000000000000000
        0.000000000000000
       -0.000458226667900
       -0.001982738884711
       -0.005118379201009
       -0.007394383992021
       -0.005716859505524
       -0.002570072110686
       -0.000665446676607
        0.000000000000000
        0.000000000000000
       -0.000877882385836
       -0.005277176539483
       -0.018820846110544
       -0.033859328507540
       -0.023792209057377
       -0.008935318491204
       -0.002198423842501
        0.000000000000000
        0.000111542587571
        0.000237973190924
       -0.003576193962461
       -0.031495716000832
       -0.089820116388056
       -0.062212465989056
       -0.018666868982049
       -0.003915213985382
       -0.000536435188496
        0.000634214896266
        0.003679093368695
        0.016837132710729
        0.044660823127638
        0.000008527762097
       -0.044618691734593
       -0.016817482932285
       -0.003670443444522
       -0.000632295967359
        0.000739293083739
        0.005153129143534
        0.024768639796663
        0.078096308998535
        0.089831694963889
        0.015657457227764
       -0.002498013286133
       -0.001463472813875
       -0.000311896383839
        0.000000000000000
        0.003143250763451
        0.012347158278491
        0.029885888799766
        0.033862136247597
        0.012738614953743
        0.001876010244971
       -0.000061891941974
        0.000000000000000
        0.000000000000000
        0.001017393939775
        0.003513581384985
        0.006949267522675
        0.007394813924390
        0.003887976384407
        0.001041733028912
        0.000107522048693
        0.000000000000000
        0.000000000000000
        0.000000000000000
        0.000000000000000
        0.001061469851299
        0.001274327232534
        0.000648276034066
        0.000000000000000
        0.000000000000000
        0.000000000000000
        0.000000000000000
        0.000000000000000
        0.000000000000000
       -0.000880248006179
       -0.001062247293251
        0.000000000000000
        0.000000000000000
        0.000000000000000
        0.000000000000000
        0.000000000000000
       -0.000583816608254
       -0.002441965466304
       -0.005680469955957
       -0.007318774084506
       -0.005106971845325
       -0.002010633128188
        0.000000000000000
        0.000000000000000
        0.000000000000000
       -0.001621446971754
       -0.008180963037919
       -0.024310622935199
       -0.033081556187660
       -0.020489052489197
       -0.007719712871198
       -0.001750806970067
        0.000000000000000
       -0.000123346635123
       -0.001898991563467
       -0.014871001915377
       -0.066184463120792
       -0.098511389952234
       -0.052865096384265
       -0.016941561146630
       -0.003762238676824
        0.000000000000000
        0.000089416388467
        0.000008793396155
       -0.005060076040413
       -0.038464198743640
       -0.105420256003648
       -0.071520573988138
       -0.021047385695778
       -0.004325310720381
       -0.000588222278869
        0.000000000000000
        0.001623396886184
        0.005132026076802
        0.006405741523739
       -0.011487727225975
       -0.026452703734082
       -0.010325467071413
       -0.002513291818361
       -0.000400414263586
        0.000000000000000
        0.001250162560964
        0.004480224981177
        0.008674135274189
        0.006963742556439
       -0.000891740780611
       -0.001775399351292
       -0.000700498959891
        0.000000000000000
        0.000000000000000
        0.000000000000000
        0.001509205680977
        0.002965193736129
        0.002997320700387
        0.001265067565070
        0.000119177330076
       -0.000053522680013
        0.000000000000000
        0.000000000000000
        0.000000000000000
        0.000000000000000
        0.000000000000000
        0.000562259177995
        0.000355660210456
        0.000000000000000
        0.000000000000000
        0.000000000000000
        0.000000000000000
        0.000000000000000
        0.000000000000000
        0.000000000000000
        0.000000000000000
        0.000000000000000
        0.000000000000000
        0.000000000000000
        0.000000000000000
        0.000000000000000
        0.000000000000000
       -0.001402284133407
       -0.003219299402006
       -0.003884147025588
       -0.002428676739478
        0.000000000000000
        0.000000000000000
        0.000000000000000
        0.000000000000000
       -0.001056640850937
       -0.004791366744008
       -0.011722522923006
       -0.014731064492221
       -0.009543625895203
       -0.003462382463073
        0.000000000000000
        0.000000000000000
        0.000000000000000
       -0.001702398831063
       -0.008549489979585
       -0.025406062645071
       -0.034849787918924
       -0.021711674863116
       -0.008186888475106
       -0.001857804673378
        0.000000000000000
        0.000000000000000
       -0.001075896111884
       -0.006260950104949
       -0.022073007258550
       -0.039739960659247
       -0.027941021358111
       -0.010420093438429
       -0.002534803987539
        0.000000000000000
        0.000000000000000
       -0.000091833382052
       -0.001374942377912
       -0.006637869677067
       -0.015166992371157
       -0.014593232515351
       -0.006381444429400
       -0.001711461649100
        0.000000000000000
        0.000000000000000
        0.000000000000000
        0.000419756623930
       -0.000019891584906
       -0.001953256201964
       -0.003210280676897
       -0.001913639313607
       -0.000582261895922
        0.000000000000000
        0.000000000000000
        0.000000000000000
        0.000000000000000
        0.000477970820272
        0.000271761728660
       -0.000195745129123
       -0.000236939249212
        0.000000000000000
        0.000000000000000
        0.000000000000000
        0.000000000000000
        0.000000000000000
        0.000000000000000
        0.000000000000000
        0.000000000000000
        0.000000000000000
        0.000000000000000
        0.000000000000000
        0.000000000000000
        0.000000000000000
        0.000000000000000
        0.000000000000000
        0.000000000000000
        0.000000000000000
        0.000000000000000
        0.000000000000000
        0.000000000000000
        0.000000000000000
        0.000000000000000
        0.000000000000000
       -0.001009779472589
       -0.001147534654053
        0.000000000000000
        0.000000000000000
        0.000000000000000
        0.000000000000000
        0.000000000000000
        0.000000000000000
       -0.001442428959583
       -0.003314527359628
       -0.004012277185214
       -0.002518183775997
        0.000000000000000
        0.000000000000000
        0.000000000000000
        0.000000000000000
       -0.000628177940071
       -0.002618149061175
       -0.006119362780188
       -0.007939978077833
       -0.005570281445036
       -0.002207143756277
        0.000000000000000
        0.000000000000000
        0.000000000000000
       -0.000529995302316
       -0.002308900265079
       -0.005968796548730
       -0.008678618648716
       -0.006748252060206
       -0.003034610143983
       -0.000788816810558
        0.000000000000000
        0.000000000000000
        0.000000000000000
       -0.000953612647708
       -0.002837580809399
       -0.004777434040668
       -0.004224081784709
       -0.002082704931318
       -0.000607524206537
        0.000000000000000
        0.000000000000000
        0.000000000000000
        0.000000000000000
       -0.000642913029481
       -0.001331866659792
       -0.001386706574968
       -0.000738684362870
        0.000000000000000
        0.000000000000000
        0.000000000000000
        0.000000000000000
        0.000000000000000
        0.000000000000000
       -0.000171694950834
       -0.000226168127745
        0.000000000000000
        0.000000000000000
        0.000000000000000
        0.000000000000000
        0.000000000000000
        0.000000000000000
        0.000000000000000
        0.000000000000000
        0.000000000000000
        0.000000000000000
        0.000000000000000
        0.000000000000000
        0.000000000000000
        0.000000000000000
        0.000000000000000
        0.000000000000000
        0.000000000000000
        0.000000000000000
        0.000000000000000
        0.000000000000000
        0.000000000000000
        0.000000000000000
        0.000000000000000
        0.000000000000000
        0.000000000000000
        0.000000000000000
        0.000000000000000
        0.000000000000000
        0.000000000000000
        0.000000000000000
        0.000000000000000
        0.000000000000000
        0.000000000000000
        0.000000000000000
        0.000000000000000
        0.000000000000000
        0.000000000000000
        0.000000000000000
        0.000000000000000
        0.000000000000000
        0.000000000000000
        0.000000000000000
       -0.000968071357585
       -0.001173737421257
        0.000000000000000
        0.000000000000000
        0.000000000000000
        0.000000000000000
        0.000000000000000
        0.000000000000000
        0.000000000000000
       -0.000983360056591
       -0.001495573952534
       -0.001023106230618
        0.000000000000000
        0.000000000000000
        0.000000000000000
        0.000000000000000
        0.000000000000000
        0.000000000000000
        0.000000000000000
       -0.000832782595574
       -0.000742877121071
        0.000000000000000
        0.000000000000000
        0.000000000000000
        0.000000000000000
        0.000000000000000
        0.000000000000000
        0.000000000000000
        0.000000000000000
        0.000000000000000
        0.000000000000000
        0.000000000000000
        0.000000000000000
        0.000000000000000
        0.000000000000000
        0.000000000000000
        0.000000000000000
        0.000000000000000
        0.000000000000000
        0.000000000000000
        0.000000000000000
        0.000000000000000
        0.000000000000000
        0.000000000000000
        0.000000000000000
        0.000000000000000
        0.000000000000000
        0.000000000000000
        0.000000000000000
        0.000000000000000
        0.000000000000000
END_DATAGRID_3D
END_BLOCK_DATAGRID_3D
