ATOMS
         C    7.558905    7.558905    7.558905
         H    8.755769    8.755769    8.755769
         H    6.362040    6.362040    8.755769
         H    8.755769    6.362040    6.362040
         H    6.362040    8.755769    6.362040
BEGIN_BLOCK_DATAGRID_3D
units: coords = b, function = sqrt(b^-3)
BEGIN_DATAGRID_3D_function
      9      9      9
0.0 0.0 0.0
   15.117809    0.000000    0.000000
    0.000000   15.117809    0.000000
    0.000000    0.000000   15.117809
        0.000000000000000
        0.000000000000000
        0.000000000000000
        0.000000000000000
        0.000000000000000
        0.000000000000000
        0.000000000000000
        0.000000000000000
        0.000000000000000
        0.000000000000000
        0.000000000000000
        0.000000000000000
        0.000000000000000
        0.000000000000000
        0.000000000000000
        0.000000000000000
        0.000000000000000
        0.000000000000000
        0.000000000000000
        0.000000000000000
        0.000000000000000
        0.000000000000000
        0.000000000000000
        0.000000000000000
        0.000000000000000
        0.000000000000000
        0.000000000000000
        0.000000000000000
        0.000000000000000
        0.000000000000000
        0.000000000000000
       -0.001214881920267
       -0.001175025895928
        0.000000000000000
        0.000000000000000
        0.000000000000000
        0.000000000000000
        0.000000000000000
        0.000000000000000
       -0.000727222099548
       -0.001416729182334
       -0.001173373114684
        0.000000000000000
        0.000000000000000
        0.000000000000000
        0.000000000000000
        0.000000000000000
        0.000000000000000
       -0.000445476877719
       -0.000685801669338
        0.000000000000000
        0.000000000000000
        0.000000000000000
        0.000000000000000
        0.000000000000000
        0.000000000000000
        0.000000000000000
        0.000000000000000
        0.000000000000000
        0.000000000000000
        0.000000000000000
        0.000000000000000
        0.000000000000000
        0.000000000000000
        0.000000000000000
        0.000000000000000
        0.000000000000000
        0.000000000000000
        0.000000000000000
        0.000000000000000
        0.000000000000000
        0.000000000000000
        0.000000000000000
        0.000000000000000
        0.000000000000000
        0.000000000000000
        0.000000000000000
        0.000000000000000
        0.000000000000000
        0.000000000000000
        0.000000000000000
        0.000000000000000
        0.000000000000000
        0.000000000000000
        0.000000000000000
        0.000000000000000
        0.000000000000000
        0.000000000000000
        0.000000000000000
        0.000000000000000
        0.000000000000000
        0.000000000000000
        0.000000000000000
        0.000000000000000
       -0.001272751459435
       -0.001278195195648
        0.000000000000000
        0.000000000000000
        0.000000000000000
        0.000000000000000
        0.000000000000000
        0.000000000000000
       -0.002171843638743
       -0.004300416011173
       -0.004296817282786
       -0.002172143302852
        0.000000000000000
        0.000000000000000
        0.000000000000000
        0.000000000000000
       -0.001164035839349
       -0.004280806842659
       -0.008169112564625
       -0.007968432468492
       -0.004144272254571
       -0.001194467135401
        0.000000000000000
        0.000000000000000
       -0.000110791158225
       -0.001132370524437
       -0.004307115282842
       -0.008221122402961
       -0.007738572466765
       -0.003927949694072
       -0.001137670259988
        0.000000000000000
        0.000000000000000
        0.000025194054681
       -0.000305633128353
       -0.001826804810998
       -0.003877809826067
       -0.003684895230846
       -0.001830449949275
        0.000000000000000
        0.000000000000000
        0.000000000000000
        0.000000000000000
        0.000108002746603
       -0.000154335630466
       -0.000761888412007
       -0.000823497387784
        0.000000000000000
        0.000000000000000
        0.000000000000000
        0.000000000000000
        0.000000000000000
        0.000000000000000
        0.000108030473467
        0.000023320714491
        0.000000000000000
        0.000000000000000
        0.000000000000000
        0.000000000000000
        0.000000000000000
        0.000000000000000
        0.000000000000000
        0.000000000000000
        0.000000000000000
        0.000000000000000
        0.000000000000000
        0.000000000000000
        0.000000000000000
        0.000000000000000
        0.000000000000000
        0.000000000000000
        0.000000000000000
        0.000000000000000
        0.000000000000000
        0.000000000000000
        0.000000000000000
        0.000000000000000
        0.000000000000000
        0.000000000000000
        0.000000000000000
       -0.002103594703965
       -0.004202773486199
       -0.004224301428392
       -0.002141592796174
        0.000000000000000
        0.000000000000000
        0.000000000000000
        0.000000000000000
       -0.001864645807326
       -0.007619321695005
       -0.015811453365598
       -0.016071817545168
       -0.007836368227551
       -0.002065886214496
        0.000000000000000
        0.000000000000000
       -0.000252770299053
       -0.003219779971766
       -0.015069260243096
       -0.036281847523937
       -0.036473163949439
       -0.015379195136269
       -0.003892622157132
        0.000000000000000
        0.000000000000000
        0.000171945480316
       -0.001831360894677
       -0.013871874961715
       -0.037644755410891
       -0.033500339523817
       -0.013964987703564
       -0.003589805692177
        0.000000000000000
        0.000000000000000
        0.000663595889895
        0.001247583293447
       -0.001401247290921
       -0.011096500418326
       -0.011790639796622
       -0.005840698230648
       -0.001594431604301
        0.000000000000000
        0.000000000000000
        0.000516558991150
        0.001493321462826
        0.001935865760092
        0.000007383282826
       -0.001444892503269
       -0.001020535206754
        0.000000000000000
        0.000000000000000
        0.000000000000000
        0.000000000000000
        0.000591407063310
        0.000992352751842
        0.000780992157254
        0.000254302467152
        0.000000000000000
        0.000000000000000
        0.000000000000000
        0.000000000000000
        0.000000000000000
        0.000000000000000
        0.000000000000000
        0.000000000000000
        0.000000000000000
        0.000000000000000
        0.000000000000000
        0.000000000000000
        0.000000000000000
        0.000000000000000
        0.000000000000000
        0.000000000000000
       -0.001129939921113
       -0.001108137607094
        0.000000000000000
        0.000000000000000
        0.000000000000000
        0.000000000000000
        0.000000000000000
       -0.001014078528855
       -0.003927484612547
       -0.007695719421029
       -0.007634206405689
       -0.004010202949459
       -0.001160734814198
        0.000000000000000
        0.000000000000000
       -0.000171058180881
       -0.002863267621895
       -0.014136935250212
       -0.034934340300059
       -0.035638900688373
       -0.015098739966725
       -0.003831066156789
        0.000000000000000
        0.000000000000000
        0.000435691700836
       -0.002625933835769
       -0.028444680916068
       -0.102412188187855
       -0.108328140724291
       -0.033586118002332
       -0.006809230027537
       -0.000943036291557
        0.000407589828075
        0.002015592128444
        0.004120892517298
       -0.014800327504436
       -0.099861287100382
       -0.089369668464682
       -0.028842164160692
       -0.006100081124951
       -0.000879151290332
        0.000448408310462
        0.002639722397066
        0.009744163202819
        0.020630071216264
       -0.001779052953794
       -0.015580011752184
       -0.008571118654901
       -0.002464127878339
        0.000000000000000
        0.000000000000000
        0.001638378494848
        0.005685204062881
        0.011789500680496
        0.010195679253440
        0.002931579466793
       -0.000215198630797
       -0.000306017714260
        0.000000000000000
        0.000000000000000
        0.000559371465266
        0.001815883351011
        0.003458127420984
        0.003602424130195
        0.001894051841695
        0.000535834699220
        0.000000000000000
        0.000000000000000
        0.000000000000000
        0.000000000000000
        0.000000000000000
        0.000612048866480
        0.000656707796559
        0.000000000000000
        0.000000000000000
        0.000000000000000
        0.000000000000000
        0.000000000000000
        0.000000000000000
        0.000000000000000
       -0.000602715476451
       -0.001248074057752
       -0.001071605157908
        0.000000000000000
        0.000000000000000
        0.000000000000000
        0.000000000000000
       -0.000016572950438
       -0.000777848358317
       -0.003520553756002
       -0.007242435225348
       -0.007090948485419
       -0.003679747278271
       -0.001083093532561
        0.000000000000000
        0.000000000000000
        0.000428842999161
       -0.000698341112395
       -0.010708175788941
       -0.033163234232355
       -0.031023417542946
       -0.013216296410972
       -0.003439233790416
        0.000000000000000
        0.000447159844361
        0.002328823008680
        0.005937118241431
       -0.007703133185522
       -0.087972688946461
       -0.084061529028226
       -0.027712720723671
       -0.005925828111429
       -0.000862326221444
        0.000835732064995
        0.004848098517443
        0.022187009122258
        0.058851474723427
        0.000011237396454
       -0.058795956386787
       -0.022161115769684
       -0.004836700142801
       -0.000833203410390
        0.000674022670810
        0.004775262866787
        0.021989073059941
        0.069110725541426
        0.087987946530523
        0.022714004968188
       -0.000177148889129
       -0.001161897282861
       -0.000255556535524
        0.000000000000000
        0.002556329697577
        0.010014758107648
        0.025289055283197
        0.033166934111389
        0.016457624339049
        0.003913944333164
        0.000460719111527
        0.000000000000000
        0.000000000000000
        0.000753411554440
        0.002795104924612
        0.005933193520298
        0.007243001765598
        0.004680951059557
        0.001665789573487
        0.000347892413598
        0.000000000000000
        0.000000000000000
        0.000000000000000
        0.000000000000000
        0.000881715519788
        0.001248154999082
        0.000792845251506
        0.000000000000000
        0.000000000000000
        0.000000000000000
        0.000000000000000
        0.000000000000000
        0.000000000000000
       -0.000319413795475
       -0.000544469772084
        0.000000000000000
        0.000000000000000
        0.000000000000000
        0.000000000000000
        0.000000000000000
        0.000130885035056
        0.000090560042441
       -0.000994494443815
       -0.002917058871575
       -0.003090035737306
       -0.001623912285327
        0.000000000000000
        0.000000000000000
        0.000000000000000
        0.000987303901567
        0.002651486123121
        0.002275839537651
       -0.006803522613260
       -0.009525797709528
       -0.005118627480566
       -0.001456131709971
        0.000000000000000
        0.000507603198327
        0.003137942524073
        0.012586955729425
        0.031079126039249
        0.010626163817128
       -0.010339933310682
       -0.007238537729659
       -0.002222528518507
        0.000000000000000
        0.000713592687096
        0.005088493747023
        0.023805298784074
        0.076207919860339
        0.099876544684443
        0.028022144404643
        0.000952294547892
       -0.000987644269339
       -0.000238731466636
        0.000000000000000
        0.004261408123935
        0.018458672986096
        0.054392016594067
        0.093585088334836
        0.056668567039770
        0.011283760838028
        0.001045000783922
       -0.000010162131051
        0.000000000000000
        0.001937080760451
        0.008205542458689
        0.020738805981247
        0.031547342915308
        0.021587458019688
        0.006774467934468
        0.001211257219451
        0.000000000000000
        0.000000000000000
        0.000000000000000
        0.002103819561808
        0.005124948962228
        0.007011222951527
        0.005173109923582
        0.002106861199466
        0.000472013661473
        0.000000000000000
        0.000000000000000
        0.000000000000000
        0.000000000000000
        0.000000000000000
        0.001017788223776
        0.000815741703091
        0.000000000000000
        0.000000000000000
        0.000000000000000
        0.000000000000000
        0.000000000000000
        0.000000000000000
        0.000000000000000
        0.000000000000000
        0.000000000000000
        0.000000000000000
        0.000000000000000
        0.000000000000000
        0.000000000000000
        0.000000000000000
        0.000323487273496
        0.000303370315234
       -0.000256869013739
       -0.000535273198851
        0.000000000000000
        0.000000000000000
        0.000000000000000
        0.000000000000000
        0.000701516761350
        0.002249754794443
        0.003620123128531
        0.001888909449871
       -0.000366391808533
       -0.000677350296145
        0.000000000000000
        0.000000000000000
        0.000000000000000
        0.001962086506519
        0.007089106892555
        0.015466587509068
        0.014488657058505
        0.005196421553886
        0.000506872119285
       -0.000167717819930
        0.000000000000000
        0.000000000000000
        0.002813227216423
        0.011147777889930
        0.028452754455971
        0.037648455289924
        0.018934546319919
        0.004662635625756
        0.000611291013288
        0.000000000000000
        0.000000000000000
        0.002018792878622
        0.008562054808559
        0.021671130974130
        0.032894850139187
        0.022421721280754
        0.007054923104013
        0.001272813219793
        0.000000000000000
        0.000000000000000
        0.000000000000000
        0.003565103976612
        0.009432989174406
        0.013916954229768
        0.010521348746691
        0.004099142564641
        0.000850492552047
        0.000000000000000
        0.000000000000000
        0.000000000000000
        0.000000000000000
        0.002384903389114
        0.003679047309390
        0.002929878747634
        0.001228068432611
        0.000000000000000
        0.000000000000000
        0.000000000000000
        0.000000000000000
        0.000000000000000
        0.000000000000000
        0.000000000000000
        0.000000000000000
        0.000000000000000
        0.000000000000000
        0.000000000000000
        0.000000000000000
        0.000000000000000
        0.000000000000000
        0.000000000000000
        0.000000000000000
        0.000000000000000
        0.000000000000000
        0.000000000000000
        0.000000000000000
        0.000000000000000
        0.000000000000000
        0.000000000000000
        0.000247422691452
        0.000172093477375
        0.000000000000000
        0.000000000000000
        0.000000000000000
        0.000000000000000
        0.000000000000000
        0.000000000000000
        0.000806891590203
        0.001450058697542
        0.001286011555522
        0.000542526656084
        0.000000000000000
        0.000000000000000
        0.000000000000000
        0.000000000000000
        0.000665062445641
        0.002212076521804
        0.004290437788166
        0.004563175084687
        0.002488911335235
        0.000742372363168
        0.000000000000000
        0.000000000000000
        0.000000000000000
        0.000847629762226
        0.003149627090732
        0.006719755047138
        0.008221688943211
        0.005328575040903
        0.001913991989288
        0.000402469141024
        0.000000000000000
        0.000000000000000
        0.000000000000000
        0.002253776872302
        0.005478271192340
        0.007484616095122
        0.005507335986385
        0.002240930504578
        0.000505745982676
        0.000000000000000
        0.000000000000000
        0.000000000000000
        0.000000000000000
        0.002453152323892
        0.003776689834364
        0.003002394602028
        0.001258618939290
        0.000000000000000
        0.000000000000000
        0.000000000000000
        0.000000000000000
        0.000000000000000
        0.000000000000000
        0.001077441385432
        0.000923018578129
        0.000000000000000
        0.000000000000000
        0.000000000000000
        0.000000000000000
        0.000000000000000
        0.000000000000000
        0.000000000000000
        0.000000000000000
        0.000000000000000
        0.000000000000000
        0.000000000000000
        0.000000000000000
        0.000000000000000
        0.000000000000000
        0.000000000000000
        0.000000000000000
        0.000000000000000
        0.000000000000000
        0.000000000000000
        0.000000000000000
        0.000000000000000
        0.000000000000000
        0.000000000000000
        0.000000000000000
        0.000000000000000
        0.000000000000000
        0.000000000000000
        0.000000000000000
        0.000000000000000
        0.000000000000000
        0.000000000000000
        0.000000000000000
        0.000000000000000
        0.000000000000000
        0.000000000000000
        0.000000000000000
        0.000000000000000
        0.000000000000000
        0.000000000000000
        0.000000000000000
        0.000000000000000
        0.000000000000000
        0.000738111948724
        0.000798039693813
        0.000000000000000
        0.000000000000000
        0.000000000000000
        0.000000000000000
        0.000000000000000
        0.000000000000000
        0.000000000000000
        0.001006222142884
        0.001416810123664
        0.000894613208282
        0.000000000000000
        0.000000000000000
        0.000000000000000
        0.000000000000000
        0.000000000000000
        0.000000000000000
        0.000000000000000
        0.001102730222930
        0.000882629991924
        0.000000000000000
        0.000000000000000
        0.000000000000000
        0.000000000000000
        0.000000000000000
        0.000000000000000
        0.000000000000000
        0.000000000000000
        0.000000000000000
        0.000000000000000
        0.000000000000000
        0.000000000000000
        0.000000000000000
        0.000000000000000
        0.000000000000000
        0.000000000000000
        0.000000000000000
        0.000000000000000
        0.000000000000000
        0.000000000000000
        0.000000000000000
        0.000000000000000
        0.000000000000000
        0.000000000000000
        0.000000000000000
        0.000000000000000
        0.000000000000000
        0.000000000000000
        0.000000000000000
        0.000000000000000
END_DATAGRID_3D
END_BLOCK_DATAGRID_3D
