ATOMS
         C    7.558905    7.558905    7.558905
         H    8.755769    8.755769    8.755769
         H    6.362040    6.362040    8.755769
         H    8.755769    6.362040    6.362040
         H    6.362040    8.755769    6.362040
BEGIN_BLOCK_DATAGRID_3D
units: coords = b, function = sqrt(b^-3)
BEGIN_DATAGRID_3D_function
      9      9      9
0.0 0.0 0.0
   15.117809    0.000000    0.000000
    0.000000   15.117809    0.000000
    0.000000    0.000000   15.117809
        0.000000000000000
        0.000000000000000
        0.000000000000000
        0.000000000000000
        0.000000000000000
        0.000000000000000
        0.000000000000000
        0.000000000000000
        0.000000000000000
        0.000000000000000
        0.000000000000000
        0.000000000000000
        0.000000000000000
        0.000000000000000
        0.000000000000000
        0.000000000000000
        0.000000000000000
        0.000000000000000
        0.000000000000000
        0.000000000000000
        0.000000000000000
        0.000000000000000
        0.000000000000000
        0.000000000000000
        0.000000000000000
        0.000000000000000
        0.000000000000000
        0.000000000000000
        0.000000000000000
        0.000000000000000
        0.000000000000000
       -0.000035300829145
        0.000013440737065
        0.000000000000000
        0.000000000000000
        0.000000000000000
        0.000000000000000
        0.000000000000000
        0.000000000000000
       -0.000077531213440
       -0.000032689789151
        0.000034524921090
        0.000000000000000
        0.000000000000000
        0.000000000000000
        0.000000000000000
        0.000000000000000
        0.000000000000000
       -0.000050349490475
       -0.000008570862416
        0.000000000000000
        0.000000000000000
        0.000000000000000
        0.000000000000000
        0.000000000000000
        0.000000000000000
        0.000000000000000
        0.000000000000000
        0.000000000000000
        0.000000000000000
        0.000000000000000
        0.000000000000000
        0.000000000000000
        0.000000000000000
        0.000000000000000
        0.000000000000000
        0.000000000000000
        0.000000000000000
        0.000000000000000
        0.000000000000000
        0.000000000000000
        0.000000000000000
        0.000000000000000
        0.000000000000000
        0.000000000000000
        0.000000000000000
        0.000000000000000
        0.000000000000000
        0.000000000000000
        0.000000000000000
        0.000000000000000
        0.000000000000000
        0.000000000000000
        0.000000000000000
        0.000000000000000
        0.000000000000000
        0.000000000000000
        0.000000000000000
        0.000000000000000
        0.000000000000000
        0.000000000000000
        0.000000000000000
        0.000000000000000
        0.000000000000000
       -0.000076236748942
       -0.000026220137288
        0.000000000000000
        0.000000000000000
        0.000000000000000
        0.000000000000000
        0.000000000000000
        0.000000000000000
       -0.000274078874873
       -0.000230594028454
       -0.000003418183236
        0.000077467895937
        0.000000000000000
        0.000000000000000
        0.000000000000000
        0.000000000000000
       -0.000359043809425
       -0.000586756349469
       -0.000329694089032
        0.000157832279072
        0.000254986185906
        0.000116072375005
        0.000000000000000
        0.000000000000000
       -0.000174102974918
       -0.000500871951492
       -0.000663645727417
       -0.000189762783050
        0.000393769894109
        0.000397969589863
        0.000152866341292
        0.000000000000000
        0.000000000000000
       -0.000137193618831
       -0.000348395718980
       -0.000379810695365
        0.000051625107187
        0.000410636642082
        0.000300102972174
        0.000000000000000
        0.000000000000000
        0.000000000000000
        0.000000000000000
       -0.000122058433355
       -0.000098617222869
        0.000113758442987
        0.000208657857755
        0.000000000000000
        0.000000000000000
        0.000000000000000
        0.000000000000000
        0.000000000000000
        0.000000000000000
       -0.000000989863269
        0.000047380663534
        0.000000000000000
        0.000000000000000
        0.000000000000000
        0.000000000000000
        0.000000000000000
        0.000000000000000
        0.000000000000000
        0.000000000000000
        0.000000000000000
        0.000000000000000
        0.000000000000000
        0.000000000000000
        0.000000000000000
        0.000000000000000
        0.000000000000000
        0.000000000000000
        0.000000000000000
        0.000000000000000
        0.000000000000000
        0.000000000000000
        0.000000000000000
        0.000000000000000
        0.000000000000000
        0.000000000000000
        0.000000000000000
       -0.000364068870225
       -0.000360375286570
       -0.000100587373131
        0.000036204878112
        0.000000000000000
        0.000000000000000
        0.000000000000000
        0.000000000000000
       -0.000730934362735
       -0.001392679107986
       -0.001115836404193
        0.000017680148980
        0.000341569182908
        0.000165669372762
        0.000000000000000
        0.000000000000000
       -0.000517024888039
       -0.001761974934215
       -0.003039838172736
       -0.001896849977974
        0.001110873570209
        0.001194816520028
        0.000464807378967
        0.000000000000000
        0.000000000000000
       -0.000727073372041
       -0.002306729027304
       -0.003834426105776
       -0.000869223108784
        0.002791666396219
        0.002008820804652
        0.000680807665384
        0.000000000000000
        0.000000000000000
       -0.000516636430705
       -0.001479769423395
       -0.001961920099229
        0.000802846633464
        0.002462259753678
        0.001604949004667
        0.000497917428049
        0.000000000000000
        0.000000000000000
       -0.000193148996716
       -0.000475458437210
       -0.000341442434426
        0.000750906157931
        0.001203571643534
        0.000686219016971
        0.000000000000000
        0.000000000000000
        0.000000000000000
        0.000000000000000
       -0.000070387598592
        0.000024950238429
        0.000281383486362
        0.000326688812930
        0.000000000000000
        0.000000000000000
        0.000000000000000
        0.000000000000000
        0.000000000000000
        0.000000000000000
        0.000000000000000
        0.000000000000000
        0.000000000000000
        0.000000000000000
        0.000000000000000
        0.000000000000000
        0.000000000000000
        0.000000000000000
        0.000000000000000
        0.000000000000000
       -0.000148226140294
       -0.000076173863847
        0.000000000000000
        0.000000000000000
        0.000000000000000
        0.000000000000000
        0.000000000000000
       -0.000555149031467
       -0.001052575683325
       -0.000958915156914
       -0.000290013842949
        0.000073893979047
        0.000070144613456
        0.000000000000000
        0.000000000000000
       -0.000623001917643
       -0.002228168051634
       -0.004269048278904
       -0.003687926645300
       -0.000006970454211
        0.000816002684494
        0.000380997273402
        0.000000000000000
        0.000000000000000
       -0.001410087732566
       -0.005230117949125
       -0.011244087043222
       -0.008321927425487
        0.004682660994417
        0.003492737219827
        0.001118436270144
        0.000206910086211
       -0.000274398254501
       -0.001768907202914
       -0.007005770444463
       -0.015889290629647
       -0.002308109526101
        0.013708515779478
        0.006645271994054
        0.001756523218912
        0.000280558991438
       -0.000205640409011
       -0.001161819662510
       -0.003929208198939
       -0.006623430899716
        0.005913523789154
        0.010392999029822
        0.005131935403885
        0.001429053046145
        0.000000000000000
        0.000000000000000
       -0.000413304849859
       -0.001005455436041
       -0.000540426197941
        0.003116061932164
        0.004074642130760
        0.002226028801700
        0.000641295255443
        0.000000000000000
        0.000000000000000
       -0.000080568867754
       -0.000121642202537
        0.000189703353997
        0.000864292549702
        0.001021661864971
        0.000561333957499
        0.000000000000000
        0.000000000000000
        0.000000000000000
        0.000000000000000
        0.000000000000000
        0.000063627450956
        0.000137252740085
        0.000000000000000
        0.000000000000000
        0.000000000000000
        0.000000000000000
        0.000000000000000
        0.000000000000000
        0.000000000000000
       -0.000241701608409
       -0.000256859832472
       -0.000101821081932
        0.000000000000000
        0.000000000000000
        0.000000000000000
        0.000000000000000
       -0.000296296606042
       -0.000964458614179
       -0.001700646325549
       -0.001490602976140
       -0.000474013758578
        0.000062712924084
        0.000078562346915
        0.000000000000000
        0.000000000000000
       -0.001060246054326
       -0.003788343800751
       -0.008005613542520
       -0.006825928906352
       -0.000527136121384
        0.000997553162312
        0.000475800126105
        0.000000000000000
       -0.000325311574276
       -0.002175078741970
       -0.009381022769300
       -0.025247721559622
       -0.018110137267276
        0.006597175455944
        0.005119789831404
        0.001519249359105
        0.000257487148708
       -0.000426134703754
       -0.002491607206798
       -0.011503161280724
       -0.030758288682900
       -0.000023036324411
        0.031223218549966
        0.011861380915892
        0.002610779059454
        0.000453140050523
       -0.000246366241583
       -0.001476399057481
       -0.005095843805680
       -0.006845206247728
        0.018100147165950
        0.025982354399766
        0.009809672906840
        0.002306154917623
        0.000350482150980
        0.000000000000000
       -0.000474316908062
       -0.001040561641195
        0.000385820645437
        0.006823910677726
        0.008263010785464
        0.003982705782165
        0.001131575831670
        0.000000000000000
        0.000000000000000
       -0.000082488985447
       -0.000081093463033
        0.000439869130396
        0.001490295730377
        0.001753999504872
        0.001015548184854
        0.000318187122820
        0.000000000000000
        0.000000000000000
        0.000000000000000
        0.000000000000000
        0.000095874148130
        0.000256831225300
        0.000249844830811
        0.000000000000000
        0.000000000000000
        0.000000000000000
        0.000000000000000
        0.000000000000000
        0.000000000000000
       -0.000216575882793
       -0.000196389607882
        0.000000000000000
        0.000000000000000
        0.000000000000000
        0.000000000000000
        0.000000000000000
       -0.000274268680783
       -0.000866469321519
       -0.001477125539099
       -0.001225374368072
       -0.000386443401425
        0.000021147247521
        0.000000000000000
        0.000000000000000
        0.000000000000000
       -0.000936448600619
       -0.003315621639882
       -0.006809888834019
       -0.004903203154906
       -0.000572418615945
        0.000629621860421
        0.000309632088103
        0.000000000000000
       -0.000281817626701
       -0.001807777829508
       -0.007647407375317
       -0.020400325948483
       -0.010574458757521
        0.003372519941252
        0.003331925247712
        0.001100133285841
        0.000000000000000
       -0.000297279561358
       -0.001882570596538
       -0.007471096130517
       -0.016203637177704
        0.002298119424775
        0.018871014076233
        0.008284190744190
        0.002068881057817
        0.000327410308249
        0.000000000000000
       -0.001004511863461
       -0.002976593990484
       -0.002316210142942
        0.012972487988585
        0.022752535509907
        0.008445504544469
        0.001992749187201
        0.000311495186509
        0.000000000000000
       -0.000284872414866
       -0.000540805068237
        0.000819030253585
        0.005472321756137
        0.007469737530569
        0.003640626734099
        0.001032809541400
        0.000000000000000
        0.000000000000000
        0.000000000000000
       -0.000009737480171
        0.000426827746309
        0.001319532705323
        0.001597139604752
        0.000945149220974
        0.000301524071977
        0.000000000000000
        0.000000000000000
        0.000000000000000
        0.000000000000000
        0.000000000000000
        0.000207307139658
        0.000231444097632
        0.000000000000000
        0.000000000000000
        0.000000000000000
        0.000000000000000
        0.000000000000000
        0.000000000000000
        0.000000000000000
        0.000000000000000
        0.000000000000000
        0.000000000000000
        0.000000000000000
        0.000000000000000
        0.000000000000000
        0.000000000000000
       -0.000403858119111
       -0.000702047036629
       -0.000557504014056
       -0.000177506044742
        0.000000000000000
        0.000000000000000
        0.000000000000000
        0.000000000000000
       -0.000433031874633
       -0.001464597964471
       -0.002561973165187
       -0.001749953058043
       -0.000241556424512
        0.000222707533116
        0.000000000000000
        0.000000000000000
        0.000000000000000
       -0.000833117019774
       -0.002841307652528
       -0.005388394932731
       -0.002589987856206
        0.001039963761137
        0.001250701657454
        0.000453009915497
        0.000000000000000
        0.000000000000000
       -0.000807489590347
       -0.002522176414642
       -0.003785366791307
        0.000867204880157
        0.004944208267862
        0.002971438139825
        0.000926568292392
        0.000000000000000
        0.000000000000000
       -0.000390849444469
       -0.001006998185655
       -0.000410179852582
        0.003681245088811
        0.006351893506149
        0.003261812898566
        0.000948999435835
        0.000000000000000
        0.000000000000000
        0.000000000000000
       -0.000150534076573
        0.000444920929303
        0.002113933921114
        0.002930242092629
        0.001659315246657
        0.000490210190836
        0.000000000000000
        0.000000000000000
        0.000000000000000
        0.000000000000000
        0.000217019297686
        0.000636304131648
        0.000788085148353
        0.000452838095866
        0.000000000000000
        0.000000000000000
        0.000000000000000
        0.000000000000000
        0.000000000000000
        0.000000000000000
        0.000000000000000
        0.000000000000000
        0.000000000000000
        0.000000000000000
        0.000000000000000
        0.000000000000000
        0.000000000000000
        0.000000000000000
        0.000000000000000
        0.000000000000000
        0.000000000000000
        0.000000000000000
        0.000000000000000
        0.000000000000000
        0.000000000000000
        0.000000000000000
        0.000000000000000
       -0.000184793908750
       -0.000150326649924
        0.000000000000000
        0.000000000000000
        0.000000000000000
        0.000000000000000
        0.000000000000000
        0.000000000000000
       -0.000352187284348
       -0.000578479575331
       -0.000389878970680
       -0.000059475089567
        0.000000000000000
        0.000000000000000
        0.000000000000000
        0.000000000000000
       -0.000217643929707
       -0.000639715805076
       -0.000907611489737
       -0.000412706925557
        0.000224581821464
        0.000282378232846
        0.000000000000000
        0.000000000000000
        0.000000000000000
       -0.000204682616571
       -0.000544680125720
       -0.000597131467736
        0.000189455537287
        0.000886215852184
        0.000680291519075
        0.000243883128443
        0.000000000000000
        0.000000000000000
        0.000000000000000
       -0.000205842702213
       -0.000038991587547
        0.000690311637441
        0.001149293482731
        0.000764057014115
        0.000255596310429
        0.000000000000000
        0.000000000000000
        0.000000000000000
        0.000000000000000
        0.000127029302333
        0.000506522873532
        0.000690915958458
        0.000411575078042
        0.000000000000000
        0.000000000000000
        0.000000000000000
        0.000000000000000
        0.000000000000000
        0.000000000000000
        0.000179139949331
        0.000214825297285
        0.000000000000000
        0.000000000000000
        0.000000000000000
        0.000000000000000
        0.000000000000000
        0.000000000000000
        0.000000000000000
        0.000000000000000
        0.000000000000000
        0.000000000000000
        0.000000000000000
        0.000000000000000
        0.000000000000000
        0.000000000000000
        0.000000000000000
        0.000000000000000
        0.000000000000000
        0.000000000000000
        0.000000000000000
        0.000000000000000
        0.000000000000000
        0.000000000000000
        0.000000000000000
        0.000000000000000
        0.000000000000000
        0.000000000000000
        0.000000000000000
        0.000000000000000
        0.000000000000000
        0.000000000000000
        0.000000000000000
        0.000000000000000
        0.000000000000000
        0.000000000000000
        0.000000000000000
        0.000000000000000
        0.000000000000000
        0.000000000000000
        0.000000000000000
        0.000000000000000
        0.000000000000000
        0.000000000000000
       -0.000102598941363
       -0.000050566005381
        0.000000000000000
        0.000000000000000
        0.000000000000000
        0.000000000000000
        0.000000000000000
        0.000000000000000
        0.000000000000000
       -0.000068296246839
        0.000032661181979
        0.000113498827789
        0.000000000000000
        0.000000000000000
        0.000000000000000
        0.000000000000000
        0.000000000000000
        0.000000000000000
        0.000000000000000
        0.000094381828509
        0.000141829496721
        0.000000000000000
        0.000000000000000
        0.000000000000000
        0.000000000000000
        0.000000000000000
        0.000000000000000
        0.000000000000000
        0.000000000000000
        0.000000000000000
        0.000000000000000
        0.000000000000000
        0.000000000000000
        0.000000000000000
        0.000000000000000
        0.000000000000000
        0.000000000000000
        0.000000000000000
        0.000000000000000
        0.000000000000000
        0.000000000000000
        0.000000000000000
        0.000000000000000
        0.000000000000000
        0.000000000000000
        0.000000000000000
        0.000000000000000
        0.000000000000000
        0.000000000000000
        0.000000000000000
        0.000000000000000
END_DATAGRID_3D
END_BLOCK_DATAGRID_3D
