ATOMS
         C    7.558905    7.558905    7.558905
         H    8.755769    8.755769    8.755769
         H    6.362040    6.362040    8.755769
         H    8.755769    6.362040    6.362040
         H    6.362040    8.755769    6.362040
BEGIN_BLOCK_DATAGRID_3D
units: coords = b, function = 1/hbar/H*b^-2
BEGIN_DATAGRID_3D_function
      9      9      9
0.0 0.0 0.0
   15.117809    0.000000    0.000000
    0.000000   15.117809    0.000000
    0.000000    0.000000   15.117809
        0.000000000000000
        0.000000000000000
        0.000000000000000
        0.000000000000000
        0.000000000000000
        0.000000000000000
        0.000000000000000
        0.000000000000000
        0.000000000000000
        0.000000000000000
        0.000000000000000
        0.000000000000000
        0.000000000000000
        0.000000000000000
        0.000000000000000
        0.000000000000000
        0.000000000000000
        0.000000000000000
        0.000000000000000
        0.000000000000000
        0.000000000000000
        0.000000000000000
        0.000000000000000
        0.000000000000000
        0.000000000000000
        0.000000000000000
        0.000000000000000
        0.000000000000000
        0.000000000000000
        0.000000000000000
        0.000000000000000
       -0.000000000010323
        0.000000000000888
        0.000000000000000
        0.000000000000000
        0.000000000000000
        0.000000000000000
        0.000000000000000
        0.000000000000000
        0.000000000001013
       -0.000000000031915
        0.000000000000888
        0.000000000000000
        0.000000000000000
        0.000000000000000
        0.000000000000000
        0.000000000000000
        0.000000000000000
        0.000000000001013
       -0.000000000011242
        0.000000000000000
        0.000000000000000
        0.000000000000000
        0.000000000000000
        0.000000000000000
        0.000000000000000
        0.000000000000000
        0.000000000000000
        0.000000000000000
        0.000000000000000
        0.000000000000000
        0.000000000000000
        0.000000000000000
        0.000000000000000
        0.000000000000000
        0.000000000000000
        0.000000000000000
        0.000000000000000
        0.000000000000000
        0.000000000000000
        0.000000000000000
        0.000000000000000
        0.000000000000000
        0.000000000000000
        0.000000000000000
        0.000000000000000
        0.000000000000000
        0.000000000000000
        0.000000000000000
        0.000000000000000
        0.000000000000000
        0.000000000000000
        0.000000000000000
        0.000000000000000
        0.000000000000000
        0.000000000000000
        0.000000000000000
        0.000000000000000
        0.000000000000000
        0.000000000000000
        0.000000000000000
        0.000000000000000
        0.000000000000000
        0.000000000000000
       -0.000000000020193
        0.000000000020181
        0.000000000000000
        0.000000000000000
        0.000000000000000
        0.000000000000000
        0.000000000000000
        0.000000000000000
       -0.000000000038665
       -0.000000000018660
        0.000000000016578
        0.000000000020878
        0.000000000000000
        0.000000000000000
        0.000000000000000
        0.000000000000000
       -0.000000000024421
       -0.000000000049396
        0.000000000029812
       -0.000000000031064
        0.000000000031297
       -0.000000000000174
        0.000000000000000
        0.000000000000000
       -0.000000000000042
       -0.000000000038408
        0.000000000019077
       -0.000000000023312
        0.000000000027427
       -0.000000000037390
       -0.000000000000174
        0.000000000000000
        0.000000000000000
       -0.000000000000042
        0.000000000030603
       -0.000000000037285
        0.000000000025704
       -0.000000000049808
       -0.000000000022288
        0.000000000000000
        0.000000000000000
        0.000000000000000
        0.000000000000000
        0.000000000019024
        0.000000000019326
       -0.000000000024094
       -0.000000000035901
        0.000000000000000
        0.000000000000000
        0.000000000000000
        0.000000000000000
        0.000000000000000
        0.000000000000000
        0.000000000018276
       -0.000000000021766
        0.000000000000000
        0.000000000000000
        0.000000000000000
        0.000000000000000
        0.000000000000000
        0.000000000000000
        0.000000000000000
        0.000000000000000
        0.000000000000000
        0.000000000000000
        0.000000000000000
        0.000000000000000
        0.000000000000000
        0.000000000000000
        0.000000000000000
        0.000000000000000
        0.000000000000000
        0.000000000000000
        0.000000000000000
        0.000000000000000
        0.000000000000000
        0.000000000000000
        0.000000000000000
        0.000000000000000
        0.000000000000000
       -0.000000000055092
        0.000000000015331
       -0.000000000011492
        0.000000000035128
        0.000000000000000
        0.000000000000000
        0.000000000000000
        0.000000000000000
       -0.000000000074285
        0.000000000012822
        0.000000000099375
       -0.000000000185904
       -0.000000000030803
        0.000000000009065
        0.000000000000000
        0.000000000000000
       -0.000000000009684
       -0.000000000040579
        0.000000000454875
       -0.000000000272504
       -0.000000000781210
       -0.000000000130086
        0.000000000009409
        0.000000000000000
        0.000000000000000
       -0.000000000017034
        0.000000000102013
       -0.000000000293053
       -0.000000000763257
       -0.000000000297546
        0.000000000115810
       -0.000000000016126
        0.000000000000000
        0.000000000000000
        0.000000000008641
       -0.000000000144694
       -0.000000000832211
       -0.000000000303334
        0.000000000450522
       -0.000000000039525
       -0.000000000007607
        0.000000000000000
        0.000000000000000
        0.000000000007151
       -0.000000000022968
       -0.000000000225508
        0.000000000109118
        0.000000000009741
       -0.000000000064771
        0.000000000000000
        0.000000000000000
        0.000000000000000
        0.000000000000000
        0.000000000031348
       -0.000000000007551
        0.000000000009190
       -0.000000000051856
        0.000000000000000
        0.000000000000000
        0.000000000000000
        0.000000000000000
        0.000000000000000
        0.000000000000000
        0.000000000000000
        0.000000000000000
        0.000000000000000
        0.000000000000000
        0.000000000000000
        0.000000000000000
        0.000000000000000
        0.000000000000000
        0.000000000000000
        0.000000000000000
       -0.000000000026706
        0.000000000017856
        0.000000000000000
        0.000000000000000
        0.000000000000000
        0.000000000000000
        0.000000000000000
       -0.000000000032566
       -0.000000000098760
       -0.000000000275243
        0.000000000154928
        0.000000000144933
       -0.000000000010685
        0.000000000000000
        0.000000000000000
        0.000000000008352
       -0.000000000179355
        0.000000002307139
        0.000000004310021
       -0.000000002771701
       -0.000000002663315
        0.000000000177601
        0.000000000000000
        0.000000000000000
       -0.000000000160478
        0.000000002046960
        0.000000007405632
       -0.000000012550502
       -0.000000023875193
       -0.000000001444859
        0.000000000114786
        0.000000000001337
        0.000000000001461
       -0.000000000339824
        0.000000004534062
       -0.000000012484344
       -0.000000030149157
       -0.000000013296874
        0.000000004539287
       -0.000000000332047
        0.000000000001337
        0.000000000001461
        0.000000000108209
       -0.000000001497761
       -0.000000023124553
       -0.000000011485347
        0.000000007583617
        0.000000002044828
       -0.000000000161357
        0.000000000000000
        0.000000000000000
        0.000000000179871
       -0.000000002699017
       -0.000000003054815
        0.000000004373615
        0.000000002327504
       -0.000000000182959
        0.000000000011053
        0.000000000000000
        0.000000000000000
       -0.000000000012590
        0.000000000148777
        0.000000000149982
       -0.000000000278979
       -0.000000000103662
       -0.000000000029334
        0.000000000000000
        0.000000000000000
        0.000000000000000
        0.000000000000000
        0.000000000000000
        0.000000000019786
       -0.000000000026498
        0.000000000000000
        0.000000000000000
        0.000000000000000
        0.000000000000000
        0.000000000000000
        0.000000000000000
        0.000000000000000
       -0.000000000010130
       -0.000000000002683
        0.000000000009921
        0.000000000000000
        0.000000000000000
        0.000000000000000
        0.000000000000000
        0.000000000005455
       -0.000000000041195
       -0.000000000532474
        0.000000000027901
        0.000000000536422
        0.000000000047306
       -0.000000000003866
        0.000000000000000
        0.000000000000000
       -0.000000000068151
        0.000000000950392
        0.000000010248793
       -0.000000000534357
       -0.000000010320365
       -0.000000000960734
        0.000000000073803
        0.000000000000000
        0.000000000002986
       -0.000000000522248
        0.000000008774811
        0.000000043446810
       -0.000000002246339
       -0.000000044563888
       -0.000000008757087
        0.000000000528020
       -0.000000000002075
        0.000000000000000
        0.000000000000000
       -0.000000000000000
        0.000000000000000
        0.000000000000000
       -0.000000000000000
        0.000000000000000
        0.000000000000000
        0.000000000000000
       -0.000000000002986
        0.000000000522248
       -0.000000008774811
       -0.000000043446810
        0.000000002246339
        0.000000044563888
        0.000000008757087
       -0.000000000528020
        0.000000000002075
        0.000000000000000
        0.000000000068151
       -0.000000000950392
       -0.000000010248793
        0.000000000534357
        0.000000010320365
        0.000000000960734
       -0.000000000073803
        0.000000000000000
        0.000000000000000
       -0.000000000005455
        0.000000000041195
        0.000000000532474
       -0.000000000027901
       -0.000000000536422
       -0.000000000047306
        0.000000000003866
        0.000000000000000
        0.000000000000000
        0.000000000000000
        0.000000000000000
        0.000000000010130
        0.000000000002683
       -0.000000000009921
        0.000000000000000
        0.000000000000000
        0.000000000000000
        0.000000000000000
        0.000000000000000
        0.000000000000000
       -0.000000000019786
        0.000000000026498
        0.000000000000000
        0.000000000000000
        0.000000000000000
        0.000000000000000
        0.000000000000000
        0.000000000012590
       -0.000000000148777
       -0.000000000149982
        0.000000000278979
        0.000000000103662
        0.000000000029334
        0.000000000000000
        0.000000000000000
        0.000000000000000
       -0.000000000179871
        0.000000002699017
        0.000000003054815
       -0.000000004373615
       -0.000000002327504
        0.000000000182959
       -0.000000000011053
        0.000000000000000
       -0.000000000001461
       -0.000000000108209
        0.000000001497761
        0.000000023124553
        0.000000011485347
       -0.000000007583617
       -0.000000002044828
        0.000000000161357
        0.000000000000000
       -0.000000000001461
        0.000000000339824
       -0.000000004534062
        0.000000012484344
        0.000000030149157
        0.000000013296874
       -0.000000004539287
        0.000000000332047
       -0.000000000001337
        0.000000000000000
        0.000000000160478
       -0.000000002046960
       -0.000000007405632
        0.000000012550502
        0.000000023875193
        0.000000001444859
       -0.000000000114786
       -0.000000000001337
        0.000000000000000
       -0.000000000008352
        0.000000000179355
       -0.000000002307139
       -0.000000004310021
        0.000000002771701
        0.000000002663315
       -0.000000000177601
        0.000000000000000
        0.000000000000000
        0.000000000000000
        0.000000000032566
        0.000000000098760
        0.000000000275243
       -0.000000000154928
       -0.000000000144933
        0.000000000010685
        0.000000000000000
        0.000000000000000
        0.000000000000000
        0.000000000000000
        0.000000000000000
        0.000000000026706
       -0.000000000017856
        0.000000000000000
        0.000000000000000
        0.000000000000000
        0.000000000000000
        0.000000000000000
        0.000000000000000
        0.000000000000000
        0.000000000000000
        0.000000000000000
        0.000000000000000
        0.000000000000000
        0.000000000000000
        0.000000000000000
        0.000000000000000
       -0.000000000031348
        0.000000000007551
       -0.000000000009190
        0.000000000051856
        0.000000000000000
        0.000000000000000
        0.000000000000000
        0.000000000000000
       -0.000000000007151
        0.000000000022968
        0.000000000225508
       -0.000000000109118
       -0.000000000009741
        0.000000000064771
        0.000000000000000
        0.000000000000000
        0.000000000000000
       -0.000000000008641
        0.000000000144694
        0.000000000832211
        0.000000000303334
       -0.000000000450522
        0.000000000039525
        0.000000000007607
        0.000000000000000
        0.000000000000000
        0.000000000017034
       -0.000000000102013
        0.000000000293053
        0.000000000763257
        0.000000000297546
       -0.000000000115810
        0.000000000016126
        0.000000000000000
        0.000000000000000
        0.000000000009684
        0.000000000040579
       -0.000000000454875
        0.000000000272504
        0.000000000781210
        0.000000000130086
       -0.000000000009409
        0.000000000000000
        0.000000000000000
        0.000000000000000
        0.000000000074285
       -0.000000000012822
       -0.000000000099375
        0.000000000185904
        0.000000000030803
       -0.000000000009065
        0.000000000000000
        0.000000000000000
        0.000000000000000
        0.000000000000000
        0.000000000055092
       -0.000000000015331
        0.000000000011492
       -0.000000000035128
        0.000000000000000
        0.000000000000000
        0.000000000000000
        0.000000000000000
        0.000000000000000
        0.000000000000000
        0.000000000000000
        0.000000000000000
        0.000000000000000
        0.000000000000000
        0.000000000000000
        0.000000000000000
        0.000000000000000
        0.000000000000000
        0.000000000000000
        0.000000000000000
        0.000000000000000
        0.000000000000000
        0.000000000000000
        0.000000000000000
        0.000000000000000
        0.000000000000000
        0.000000000000000
       -0.000000000018276
        0.000000000021766
        0.000000000000000
        0.000000000000000
        0.000000000000000
        0.000000000000000
        0.000000000000000
        0.000000000000000
       -0.000000000019024
       -0.000000000019326
        0.000000000024094
        0.000000000035901
        0.000000000000000
        0.000000000000000
        0.000000000000000
        0.000000000000000
        0.000000000000042
       -0.000000000030603
        0.000000000037285
       -0.000000000025704
        0.000000000049808
        0.000000000022288
        0.000000000000000
        0.000000000000000
        0.000000000000000
        0.000000000000042
        0.000000000038408
       -0.000000000019077
        0.000000000023312
       -0.000000000027427
        0.000000000037390
        0.000000000000174
        0.000000000000000
        0.000000000000000
        0.000000000000000
        0.000000000024421
        0.000000000049396
       -0.000000000029812
        0.000000000031064
       -0.000000000031297
        0.000000000000174
        0.000000000000000
        0.000000000000000
        0.000000000000000
        0.000000000000000
        0.000000000038665
        0.000000000018660
       -0.000000000016578
       -0.000000000020878
        0.000000000000000
        0.000000000000000
        0.000000000000000
        0.000000000000000
        0.000000000000000
        0.000000000000000
        0.000000000020193
       -0.000000000020181
        0.000000000000000
        0.000000000000000
        0.000000000000000
        0.000000000000000
        0.000000000000000
        0.000000000000000
        0.000000000000000
        0.000000000000000
        0.000000000000000
        0.000000000000000
        0.000000000000000
        0.000000000000000
        0.000000000000000
        0.000000000000000
        0.000000000000000
        0.000000000000000
        0.000000000000000
        0.000000000000000
        0.000000000000000
        0.000000000000000
        0.000000000000000
        0.000000000000000
        0.000000000000000
        0.000000000000000
        0.000000000000000
        0.000000000000000
        0.000000000000000
        0.000000000000000
        0.000000000000000
        0.000000000000000
        0.000000000000000
        0.000000000000000
        0.000000000000000
        0.000000000000000
        0.000000000000000
        0.000000000000000
        0.000000000000000
        0.000000000000000
        0.000000000000000
        0.000000000000000
        0.000000000000000
        0.000000000000000
       -0.000000000001013
        0.000000000011242
        0.000000000000000
        0.000000000000000
        0.000000000000000
        0.000000000000000
        0.000000000000000
        0.000000000000000
        0.000000000000000
       -0.000000000001013
        0.000000000031915
       -0.000000000000888
        0.000000000000000
        0.000000000000000
        0.000000000000000
        0.000000000000000
        0.000000000000000
        0.000000000000000
        0.000000000000000
        0.000000000010323
       -0.000000000000888
        0.000000000000000
        0.000000000000000
        0.000000000000000
        0.000000000000000
        0.000000000000000
        0.000000000000000
        0.000000000000000
        0.000000000000000
        0.000000000000000
        0.000000000000000
        0.000000000000000
        0.000000000000000
        0.000000000000000
        0.000000000000000
        0.000000000000000
        0.000000000000000
        0.000000000000000
        0.000000000000000
        0.000000000000000
        0.000000000000000
        0.000000000000000
        0.000000000000000
        0.000000000000000
        0.000000000000000
        0.000000000000000
        0.000000000000000
        0.000000000000000
        0.000000000000000
        0.000000000000000
        0.000000000000000
END_DATAGRID_3D
END_BLOCK_DATAGRID_3D
