ATOMS
         C    7.558905    7.558905    7.558905
         H    8.755769    8.755769    8.755769
         H    6.362040    6.362040    8.755769
         H    8.755769    6.362040    6.362040
         H    6.362040    8.755769    6.362040
BEGIN_BLOCK_DATAGRID_3D
units: coords = b, function = sqrt(b^-3)
BEGIN_DATAGRID_3D_function
      9      9      9
0.0 0.0 0.0
   15.117809    0.000000    0.000000
    0.000000   15.117809    0.000000
    0.000000    0.000000   15.117809
        0.000000000000000
        0.000000000000000
        0.000000000000000
        0.000000000000000
        0.000000000000000
        0.000000000000000
        0.000000000000000
        0.000000000000000
        0.000000000000000
        0.000000000000000
        0.000000000000000
        0.000000000000000
        0.000000000000000
        0.000000000000000
        0.000000000000000
        0.000000000000000
        0.000000000000000
        0.000000000000000
        0.000000000000000
        0.000000000000000
        0.000000000000000
        0.000000000000000
        0.000000000000000
        0.000000000000000
        0.000000000000000
        0.000000000000000
        0.000000000000000
        0.000000000000000
        0.000000000000000
        0.000000000000000
        0.000000000000000
       -0.000021306441807
        0.000008097641649
        0.000000000000000
        0.000000000000000
        0.000000000000000
        0.000000000000000
        0.000000000000000
        0.000000000000000
       -0.000046931435446
       -0.000019732532505
        0.000020796678504
        0.000000000000000
        0.000000000000000
        0.000000000000000
        0.000000000000000
        0.000000000000000
        0.000000000000000
       -0.000030477575527
       -0.000005168905907
        0.000000000000000
        0.000000000000000
        0.000000000000000
        0.000000000000000
        0.000000000000000
        0.000000000000000
        0.000000000000000
        0.000000000000000
        0.000000000000000
        0.000000000000000
        0.000000000000000
        0.000000000000000
        0.000000000000000
        0.000000000000000
        0.000000000000000
        0.000000000000000
        0.000000000000000
        0.000000000000000
        0.000000000000000
        0.000000000000000
        0.000000000000000
        0.000000000000000
        0.000000000000000
        0.000000000000000
        0.000000000000000
        0.000000000000000
        0.000000000000000
        0.000000000000000
        0.000000000000000
        0.000000000000000
        0.000000000000000
        0.000000000000000
        0.000000000000000
        0.000000000000000
        0.000000000000000
        0.000000000000000
        0.000000000000000
        0.000000000000000
        0.000000000000000
        0.000000000000000
        0.000000000000000
        0.000000000000000
        0.000000000000000
        0.000000000000000
       -0.000046022216157
       -0.000015785703555
        0.000000000000000
        0.000000000000000
        0.000000000000000
        0.000000000000000
        0.000000000000000
        0.000000000000000
       -0.000165917285491
       -0.000139214302174
       -0.000002042400132
        0.000046533156026
        0.000000000000000
        0.000000000000000
        0.000000000000000
        0.000000000000000
       -0.000217960014727
       -0.000355215448640
       -0.000199020677410
        0.000095075714561
        0.000153148991728
        0.000069529023198
        0.000000000000000
        0.000000000000000
       -0.000105991157916
       -0.000304067151703
       -0.000401747321757
       -0.000114514703627
        0.000237156394071
        0.000239020574811
        0.000091569242335
        0.000000000000000
        0.000000000000000
       -0.000083521568607
       -0.000211499088919
       -0.000229912257580
        0.000031214363517
        0.000247294174459
        0.000180246552245
        0.000000000000000
        0.000000000000000
        0.000000000000000
        0.000000000000000
       -0.000074092325475
       -0.000059689729036
        0.000068700890007
        0.000125662262033
        0.000000000000000
        0.000000000000000
        0.000000000000000
        0.000000000000000
        0.000000000000000
        0.000000000000000
       -0.000000595053767
        0.000028614733912
        0.000000000000000
        0.000000000000000
        0.000000000000000
        0.000000000000000
        0.000000000000000
        0.000000000000000
        0.000000000000000
        0.000000000000000
        0.000000000000000
        0.000000000000000
        0.000000000000000
        0.000000000000000
        0.000000000000000
        0.000000000000000
        0.000000000000000
        0.000000000000000
        0.000000000000000
        0.000000000000000
        0.000000000000000
        0.000000000000000
        0.000000000000000
        0.000000000000000
        0.000000000000000
        0.000000000000000
        0.000000000000000
       -0.000220398170859
       -0.000217574379271
       -0.000060552481136
        0.000021752063475
        0.000000000000000
        0.000000000000000
        0.000000000000000
        0.000000000000000
       -0.000443726238373
       -0.000843132797034
       -0.000673637001137
        0.000010722474292
        0.000205156834598
        0.000099239928748
        0.000000000000000
        0.000000000000000
       -0.000314758501406
       -0.001069676056258
       -0.001840269535373
       -0.001145028127910
        0.000669136249680
        0.000717605323802
        0.000278426273099
        0.000000000000000
        0.000000000000000
       -0.000442636614194
       -0.001400382491214
       -0.002321200525672
       -0.000524414012649
        0.001681303384423
        0.001206469105248
        0.000407807744080
        0.000000000000000
        0.000000000000000
       -0.000314521219540
       -0.000898334582114
       -0.001187585100587
        0.000485005677072
        0.001482815426341
        0.000963900363833
        0.000298256754127
        0.000000000000000
        0.000000000000000
       -0.000117584539085
       -0.000288631135161
       -0.000206640527079
        0.000453470496266
        0.000724779988522
        0.000412142936862
        0.000000000000000
        0.000000000000000
        0.000000000000000
        0.000000000000000
       -0.000042723030805
        0.000015122909478
        0.000169908414920
        0.000196737487144
        0.000000000000000
        0.000000000000000
        0.000000000000000
        0.000000000000000
        0.000000000000000
        0.000000000000000
        0.000000000000000
        0.000000000000000
        0.000000000000000
        0.000000000000000
        0.000000000000000
        0.000000000000000
        0.000000000000000
        0.000000000000000
        0.000000000000000
        0.000000000000000
       -0.000089483630299
       -0.000045866422147
        0.000000000000000
        0.000000000000000
        0.000000000000000
        0.000000000000000
        0.000000000000000
       -0.000337014205934
       -0.000637237496075
       -0.000578929586073
       -0.000174593111247
        0.000044394260256
        0.000042019367886
        0.000000000000000
        0.000000000000000
       -0.000379277707637
       -0.001352710687956
       -0.002584473153171
       -0.002226430726795
       -0.000003962033731
        0.000490112091848
        0.000228225743251
        0.000000000000000
        0.000000000000000
       -0.000858452283335
       -0.003175191099888
       -0.006806805122669
       -0.005023499506934
        0.002820699773027
        0.002097802011999
        0.000669918980831
        0.000123627773182
       -0.000167506199653
       -0.001076969736953
       -0.004252967217877
       -0.009618339581393
       -0.001391498918765
        0.008256118568493
        0.003991155282734
        0.001052098477622
        0.000167640231545
       -0.000125538263197
       -0.000707347580711
       -0.002385220972766
       -0.004008981859312
        0.003571595595464
        0.006258909695760
        0.003082083512296
        0.000856005183481
        0.000000000000000
        0.000000000000000
       -0.000251611205467
       -0.000610367386800
       -0.000326947619810
        0.001881694354169
        0.002453716266394
        0.001336887205527
        0.000384138876387
        0.000000000000000
        0.000000000000000
       -0.000049047292757
       -0.000073833392381
        0.000114893988992
        0.000521888852071
        0.000615224995046
        0.000337134091109
        0.000000000000000
        0.000000000000000
        0.000000000000000
        0.000000000000000
        0.000000000000000
        0.000038524648132
        0.000082882567903
        0.000000000000000
        0.000000000000000
        0.000000000000000
        0.000000000000000
        0.000000000000000
        0.000000000000000
        0.000000000000000
       -0.000146320682092
       -0.000155080336870
       -0.000061306767816
        0.000000000000000
        0.000000000000000
        0.000000000000000
        0.000000000000000
       -0.000180383680017
       -0.000585514243612
       -0.001029576445046
       -0.000899925054446
       -0.000285371959479
        0.000037684613567
        0.000047062208149
        0.000000000000000
        0.000000000000000
       -0.000645475956889
       -0.002299902900974
       -0.004846554736678
       -0.004120893054186
       -0.000317066489927
        0.000599169708464
        0.000285012918912
        0.000000000000000
       -0.000198584571733
       -0.001324270064001
       -0.005695025017199
       -0.015283905554801
       -0.010932250758558
        0.003973912726573
        0.003075066248885
        0.000909982336123
        0.000153852169404
       -0.000260125147037
       -0.001517089923722
       -0.006982837126428
       -0.018618578600742
       -0.000003400060404
        0.018804642532916
        0.007124223353620
        0.001563652814611
        0.000270771226421
       -0.000150397115570
       -0.000898877604432
       -0.003093375397127
       -0.004142883854048
        0.010930831559688
        0.015647267342935
        0.005891521185195
        0.001381296646673
        0.000209422859806
        0.000000000000000
       -0.000288753623654
       -0.000631651908188
        0.000233945940163
        0.004120618086846
        0.004975912343834
        0.002391871828336
        0.000677810881386
        0.000000000000000
        0.000000000000000
       -0.000050215721792
       -0.000049210368767
        0.000266369600127
        0.000899883545716
        0.001056229107126
        0.000609911593951
        0.000190594314022
        0.000000000000000
        0.000000000000000
        0.000000000000000
        0.000000000000000
        0.000058050661349
        0.000155076361193
        0.000150458266849
        0.000000000000000
        0.000000000000000
        0.000000000000000
        0.000000000000000
        0.000000000000000
        0.000000000000000
       -0.000131109283161
       -0.000118575164619
        0.000000000000000
        0.000000000000000
        0.000000000000000
        0.000000000000000
        0.000000000000000
       -0.000166973459094
       -0.000526025576319
       -0.000894250563134
       -0.000739794190485
       -0.000232656893739
        0.000012717620274
        0.000000000000000
        0.000000000000000
        0.000000000000000
       -0.000570110636103
       -0.002012917757131
       -0.004122644447606
       -0.002960092038469
       -0.000344458079831
        0.000378183948330
        0.000185475766856
        0.000000000000000
       -0.000172032337318
       -0.001100678595613
       -0.004642470165537
       -0.012349673811373
       -0.006383360886756
        0.002031535422372
        0.002001154260345
        0.000658981506851
        0.000000000000000
       -0.000181475487649
       -0.001146177931480
       -0.004535433196449
       -0.009808449827455
        0.001390079719895
        0.011365061501015
        0.004975432151347
        0.001239180505174
        0.000195634797665
        0.000000000000000
       -0.000611540939355
       -0.001806958359748
       -0.001401550039334
        0.007833826933906
        0.013701896434762
        0.005072334177362
        0.001193538590901
        0.000186130014273
        0.000000000000000
       -0.000173422937636
       -0.000328265405499
        0.000496100380495
        0.003304454215053
        0.004498220806207
        0.002186422241621
        0.000618647241751
        0.000000000000000
        0.000000000000000
        0.000000000000000
       -0.000005893994635
        0.000258458004661
        0.000796771660000
        0.000961774227687
        0.000567631496682
        0.000180612887780
        0.000000000000000
        0.000000000000000
        0.000000000000000
        0.000000000000000
        0.000000000000000
        0.000125168586952
        0.000139378161977
        0.000000000000000
        0.000000000000000
        0.000000000000000
        0.000000000000000
        0.000000000000000
        0.000000000000000
        0.000000000000000
        0.000000000000000
        0.000000000000000
        0.000000000000000
        0.000000000000000
        0.000000000000000
        0.000000000000000
        0.000000000000000
       -0.000245168485242
       -0.000425020531686
       -0.000336579460842
       -0.000106869061729
        0.000000000000000
        0.000000000000000
        0.000000000000000
        0.000000000000000
       -0.000263626022723
       -0.000889152677132
       -0.001550993611963
       -0.001056452856024
       -0.000145374267540
        0.000133778752198
        0.000000000000000
        0.000000000000000
        0.000000000000000
       -0.000507200622030
       -0.001724950561817
       -0.003262006966829
       -0.001563403361373
        0.000626442760222
        0.000751170790024
        0.000271357889115
        0.000000000000000
        0.000000000000000
       -0.000491592966349
       -0.001531172317948
       -0.002291408270843
        0.000524139045308
        0.002977542469484
        0.001784572431552
        0.000555016056218
        0.000000000000000
        0.000000000000000
       -0.000237942143867
       -0.000611300037197
       -0.000248103237303
        0.002223051616168
        0.003825122522796
        0.001958929009667
        0.000568446711903
        0.000000000000000
        0.000000000000000
        0.000000000000000
       -0.000091360339926
        0.000269453304866
        0.001276489819372
        0.001764567298784
        0.000996529195860
        0.000293637147536
        0.000000000000000
        0.000000000000000
        0.000000000000000
        0.000000000000000
        0.000131407175619
        0.000384219370055
        0.000474570811321
        0.000271972426221
        0.000000000000000
        0.000000000000000
        0.000000000000000
        0.000000000000000
        0.000000000000000
        0.000000000000000
        0.000000000000000
        0.000000000000000
        0.000000000000000
        0.000000000000000
        0.000000000000000
        0.000000000000000
        0.000000000000000
        0.000000000000000
        0.000000000000000
        0.000000000000000
        0.000000000000000
        0.000000000000000
        0.000000000000000
        0.000000000000000
        0.000000000000000
        0.000000000000000
        0.000000000000000
       -0.000111866146431
       -0.000090761440971
        0.000000000000000
        0.000000000000000
        0.000000000000000
        0.000000000000000
        0.000000000000000
        0.000000000000000
       -0.000213799190571
       -0.000350207893172
       -0.000235371935929
       -0.000035793836619
        0.000000000000000
        0.000000000000000
        0.000000000000000
        0.000000000000000
       -0.000132499183245
       -0.000388359879781
       -0.000549444316562
       -0.000249119701931
        0.000135273926848
        0.000169605159138
        0.000000000000000
        0.000000000000000
        0.000000000000000
       -0.000124608243894
       -0.000330657460676
       -0.000361459523163
        0.000114473194897
        0.000533700753575
        0.000408575632708
        0.000146087279837
        0.000000000000000
        0.000000000000000
        0.000000000000000
       -0.000124948185841
       -0.000023564042773
        0.000416862751337
        0.000692105401878
        0.000458876765210
        0.000153103232468
        0.000000000000000
        0.000000000000000
        0.000000000000000
        0.000000000000000
        0.000076926290252
        0.000305859292958
        0.000416060730317
        0.000247191333671
        0.000000000000000
        0.000000000000000
        0.000000000000000
        0.000000000000000
        0.000000000000000
        0.000000000000000
        0.000108163110216
        0.000129372992961
        0.000000000000000
        0.000000000000000
        0.000000000000000
        0.000000000000000
        0.000000000000000
        0.000000000000000
        0.000000000000000
        0.000000000000000
        0.000000000000000
        0.000000000000000
        0.000000000000000
        0.000000000000000
        0.000000000000000
        0.000000000000000
        0.000000000000000
        0.000000000000000
        0.000000000000000
        0.000000000000000
        0.000000000000000
        0.000000000000000
        0.000000000000000
        0.000000000000000
        0.000000000000000
        0.000000000000000
        0.000000000000000
        0.000000000000000
        0.000000000000000
        0.000000000000000
        0.000000000000000
        0.000000000000000
        0.000000000000000
        0.000000000000000
        0.000000000000000
        0.000000000000000
        0.000000000000000
        0.000000000000000
        0.000000000000000
        0.000000000000000
        0.000000000000000
        0.000000000000000
        0.000000000000000
        0.000000000000000
       -0.000062107059503
       -0.000030523690809
        0.000000000000000
        0.000000000000000
        0.000000000000000
        0.000000000000000
        0.000000000000000
        0.000000000000000
        0.000000000000000
       -0.000041338585297
        0.000019728556828
        0.000068354820528
        0.000000000000000
        0.000000000000000
        0.000000000000000
        0.000000000000000
        0.000000000000000
        0.000000000000000
        0.000000000000000
        0.000056991398459
        0.000085414098180
        0.000000000000000
        0.000000000000000
        0.000000000000000
        0.000000000000000
        0.000000000000000
        0.000000000000000
        0.000000000000000
        0.000000000000000
        0.000000000000000
        0.000000000000000
        0.000000000000000
        0.000000000000000
        0.000000000000000
        0.000000000000000
        0.000000000000000
        0.000000000000000
        0.000000000000000
        0.000000000000000
        0.000000000000000
        0.000000000000000
        0.000000000000000
        0.000000000000000
        0.000000000000000
        0.000000000000000
        0.000000000000000
        0.000000000000000
        0.000000000000000
        0.000000000000000
        0.000000000000000
        0.000000000000000
END_DATAGRID_3D
END_BLOCK_DATAGRID_3D
