ATOMS
         C    7.558905    7.558905    7.558905
         H    8.755769    8.755769    8.755769
         H    6.362040    6.362040    8.755769
         H    8.755769    6.362040    6.362040
         H    6.362040    8.755769    6.362040
BEGIN_BLOCK_DATAGRID_3D
units: coords = b, function = sqrt(b^-3)
BEGIN_DATAGRID_3D_function
      9      9      9
0.0 0.0 0.0
   15.117809    0.000000    0.000000
    0.000000   15.117809    0.000000
    0.000000    0.000000   15.117809
        0.000000000000000
        0.000000000000000
        0.000000000000000
        0.000000000000000
        0.000000000000000
        0.000000000000000
        0.000000000000000
        0.000000000000000
        0.000000000000000
        0.000000000000000
        0.000000000000000
        0.000000000000000
        0.000000000000000
        0.000000000000000
        0.000000000000000
        0.000000000000000
        0.000000000000000
        0.000000000000000
        0.000000000000000
        0.000000000000000
        0.000000000000000
        0.000000000000000
        0.000000000000000
        0.000000000000000
        0.000000000000000
        0.000000000000000
        0.000000000000000
        0.000000000000000
        0.000000000000000
        0.000000000000000
        0.000000000000000
       -0.000145508822014
        0.000055027098313
        0.000000000000000
        0.000000000000000
        0.000000000000000
        0.000000000000000
        0.000000000000000
        0.000000000000000
       -0.000322171044993
       -0.000134777060715
        0.000141327019202
        0.000000000000000
        0.000000000000000
        0.000000000000000
        0.000000000000000
        0.000000000000000
        0.000000000000000
       -0.000209222178320
       -0.000035298182831
        0.000000000000000
        0.000000000000000
        0.000000000000000
        0.000000000000000
        0.000000000000000
        0.000000000000000
        0.000000000000000
        0.000000000000000
        0.000000000000000
        0.000000000000000
        0.000000000000000
        0.000000000000000
        0.000000000000000
        0.000000000000000
        0.000000000000000
        0.000000000000000
        0.000000000000000
        0.000000000000000
        0.000000000000000
        0.000000000000000
        0.000000000000000
        0.000000000000000
        0.000000000000000
        0.000000000000000
        0.000000000000000
        0.000000000000000
        0.000000000000000
        0.000000000000000
        0.000000000000000
        0.000000000000000
        0.000000000000000
        0.000000000000000
        0.000000000000000
        0.000000000000000
        0.000000000000000
        0.000000000000000
        0.000000000000000
        0.000000000000000
        0.000000000000000
        0.000000000000000
        0.000000000000000
        0.000000000000000
        0.000000000000000
        0.000000000000000
       -0.000314310220381
       -0.000107269668483
        0.000000000000000
        0.000000000000000
        0.000000000000000
        0.000000000000000
        0.000000000000000
        0.000000000000000
       -0.001138984639134
       -0.000950832641471
       -0.000013879453644
        0.000314611027361
        0.000000000000000
        0.000000000000000
        0.000000000000000
        0.000000000000000
       -0.001503990767149
       -0.002438571497727
       -0.001359296842812
        0.000646058192568
        0.001035406873506
        0.000467706731912
        0.000000000000000
        0.000000000000000
       -0.000735178618986
       -0.002098213145000
       -0.002758007699806
       -0.000782126305343
        0.001611523233530
        0.001615966244410
        0.000615970665349
        0.000000000000000
        0.000000000000000
       -0.000579327659513
       -0.001459448906733
       -0.001578357081008
        0.000213193127457
        0.001680404613279
        0.001218641378736
        0.000000000000000
        0.000000000000000
        0.000000000000000
        0.000000000000000
       -0.000511259558245
       -0.000409774283869
        0.000469215696212
        0.000853933498166
        0.000000000000000
        0.000000000000000
        0.000000000000000
        0.000000000000000
        0.000000000000000
        0.000000000000000
       -0.000004083215775
        0.000195451862902
        0.000000000000000
        0.000000000000000
        0.000000000000000
        0.000000000000000
        0.000000000000000
        0.000000000000000
        0.000000000000000
        0.000000000000000
        0.000000000000000
        0.000000000000000
        0.000000000000000
        0.000000000000000
        0.000000000000000
        0.000000000000000
        0.000000000000000
        0.000000000000000
        0.000000000000000
        0.000000000000000
        0.000000000000000
        0.000000000000000
        0.000000000000000
        0.000000000000000
        0.000000000000000
        0.000000000000000
        0.000000000000000
       -0.001512986748635
       -0.001486028920881
       -0.000411464690436
        0.000147068357207
        0.000000000000000
        0.000000000000000
        0.000000000000000
        0.000000000000000
       -0.003061842856655
       -0.005788137178683
       -0.004600890510422
        0.000072861822415
        0.001387020576714
        0.000667568630721
        0.000000000000000
        0.000000000000000
       -0.002183222199218
       -0.007381263639316
       -0.012633438558704
       -0.007820446425123
        0.004546929342256
        0.004851600649896
        0.001872914310122
        0.000000000000000
        0.000000000000000
       -0.003070234835830
       -0.009663253610928
       -0.015935007893409
       -0.003581682845993
        0.011424846229286
        0.008156734398143
        0.002743232291398
        0.000000000000000
        0.000000000000000
       -0.002181593404455
       -0.006198915629247
       -0.008152772168940
        0.003312573635629
        0.010076061433238
        0.006516744177115
        0.002006319340467
        0.000000000000000
        0.000000000000000
       -0.000815592379345
       -0.001991696198464
       -0.001418594158573
        0.003097178426834
        0.004925012989641
        0.002786478203352
        0.000000000000000
        0.000000000000000
        0.000000000000000
        0.000000000000000
       -0.000294799153118
        0.000103818198225
        0.001160453423956
        0.001336914832961
        0.000000000000000
        0.000000000000000
        0.000000000000000
        0.000000000000000
        0.000000000000000
        0.000000000000000
        0.000000000000000
        0.000000000000000
        0.000000000000000
        0.000000000000000
        0.000000000000000
        0.000000000000000
        0.000000000000000
        0.000000000000000
        0.000000000000000
        0.000000000000000
       -0.000611133112950
       -0.000311680466887
        0.000000000000000
        0.000000000000000
        0.000000000000000
        0.000000000000000
        0.000000000000000
       -0.002325506907930
       -0.004374662572959
       -0.003954049425147
       -0.001186393434199
        0.000300138519265
        0.000282656283193
        0.000000000000000
        0.000000000000000
       -0.002630741160695
       -0.009334336009493
       -0.017742390535683
       -0.015206346787081
       -0.000026926458211
        0.003313558776192
        0.001535227874000
        0.000000000000000
        0.000000000000000
       -0.005954417900603
       -0.021910156961684
       -0.046727943810077
       -0.034309827043900
        0.019167570448501
        0.014183309402710
        0.004506293241285
        0.000827458053965
       -0.001167875966933
       -0.007470325224885
       -0.029346449454294
       -0.066028732559968
       -0.009502975633721
        0.056103014673189
        0.026984373032950
        0.007077045357950
        0.001122064828663
       -0.000875286391992
       -0.004906470966057
       -0.016458543694260
       -0.027521287133210
        0.024394046831168
        0.042531353964190
        0.020837515977131
        0.005758168794908
        0.000000000000000
        0.000000000000000
       -0.001745231914702
       -0.004211813035752
       -0.002244497356116
        0.012851884118670
        0.016673561454729
        0.009038436989229
        0.002584032434717
        0.000000000000000
        0.000000000000000
       -0.000340203454094
       -0.000509490302082
        0.000788749691421
        0.003564470746797
        0.004180566081396
        0.002279342956048
        0.000000000000000
        0.000000000000000
        0.000000000000000
        0.000000000000000
        0.000000000000000
        0.000264465091035
        0.000566115707250
        0.000000000000000
        0.000000000000000
        0.000000000000000
        0.000000000000000
        0.000000000000000
        0.000000000000000
        0.000000000000000
       -0.001004462123129
       -0.001059193918712
       -0.000416597931695
        0.000000000000000
        0.000000000000000
        0.000000000000000
        0.000000000000000
       -0.001251184928377
       -0.004040334219049
       -0.007068073953926
       -0.006146429212486
       -0.001939157892316
        0.000254776134770
        0.000316579191868
        0.000000000000000
        0.000000000000000
       -0.004477182902429
       -0.015870344482007
       -0.033271496641390
       -0.028145400601082
       -0.002154586217051
        0.004050892479797
        0.001917222490222
        0.000000000000000
       -0.001384549672142
       -0.009185719456167
       -0.039297092505054
       -0.104921649908007
       -0.074665665997996
        0.027003427384101
        0.020790800142099
        0.006121087089726
        0.001029764770898
       -0.001813618183181
       -0.010523506139327
       -0.048181716099872
       -0.127813292231077
       -0.000006918764770
        0.127785084313197
        0.048168544860047
        0.010517752989300
        0.001812360118353
       -0.001048605386173
       -0.006235001965570
       -0.021344822135580
       -0.028441079535024
        0.074657907417610
        0.106329072347060
        0.039832670366990
        0.009291413547302
        0.001401739839417
        0.000000000000000
       -0.002002860319934
       -0.004358668208968
        0.001605990421390
        0.028143600040924
        0.033812540334875
        0.016171037277391
        0.004559479651575
        0.000000000000000
        0.000000000000000
       -0.000348308102949
       -0.000339578883842
        0.001828635116868
        0.006146149294235
        0.007177280894278
        0.004123484808859
        0.001282090992179
        0.000000000000000
        0.000000000000000
        0.000000000000000
        0.000000000000000
        0.000398513283358
        0.001059153780408
        0.001022426793593
        0.000000000000000
        0.000000000000000
        0.000000000000000
        0.000000000000000
        0.000000000000000
        0.000000000000000
       -0.000900038096305
       -0.000809888724706
        0.000000000000000
        0.000000000000000
        0.000000000000000
        0.000000000000000
        0.000000000000000
       -0.001158170293253
       -0.003629835478974
       -0.006139064898712
       -0.005052748095650
       -0.001580956645708
        0.000085993081448
        0.000000000000000
        0.000000000000000
        0.000000000000000
       -0.003954434294947
       -0.013890034234893
       -0.028301953671193
       -0.020217261298955
       -0.002340695311413
        0.002556834732592
        0.001247658441873
        0.000000000000000
       -0.001199419296560
       -0.007634906972481
       -0.032033851396653
       -0.084779605080035
       -0.043598272645775
        0.013804673902834
        0.013529622071365
        0.004432816011078
        0.000000000000000
       -0.001265279091381
       -0.007950396196852
       -0.031295465186340
       -0.067333996883064
        0.009495217053335
        0.077229485057971
        0.033639097476140
        0.008335455279078
        0.001309439781652
        0.000000000000000
       -0.004241806325984
       -0.012468642228020
       -0.009621811391748
        0.053504170027640
        0.093108394445829
        0.034294514796216
        0.008028325165075
        0.001245842076767
        0.000000000000000
       -0.001202896257725
       -0.002265177970114
        0.003405706676892
        0.022569197226382
        0.030566418837607
        0.014782027372663
        0.004161493230028
        0.000000000000000
        0.000000000000000
        0.000000000000000
       -0.000040662623352
        0.001774315631935
        0.005441900708681
        0.006535444476574
        0.003837634724896
        0.001214945857675
        0.000000000000000
        0.000000000000000
        0.000000000000000
        0.000000000000000
        0.000000000000000
        0.000854863797896
        0.000947133475382
        0.000000000000000
        0.000000000000000
        0.000000000000000
        0.000000000000000
        0.000000000000000
        0.000000000000000
        0.000000000000000
        0.000000000000000
        0.000000000000000
        0.000000000000000
        0.000000000000000
        0.000000000000000
        0.000000000000000
        0.000000000000000
       -0.001691745677397
       -0.002917791498007
       -0.002298817124030
       -0.000726200064552
        0.000000000000000
        0.000000000000000
        0.000000000000000
        0.000000000000000
       -0.001828566802566
       -0.006135585099412
       -0.010647615135042
       -0.007215509336966
       -0.000987858915644
        0.000904479242140
        0.000000000000000
        0.000000000000000
        0.000000000000000
       -0.003518072805195
       -0.011902931641398
       -0.022393678858369
       -0.010677950815913
        0.004256804710077
        0.005078527544706
        0.001825371536122
        0.000000000000000
        0.000000000000000
       -0.003409808386533
       -0.010565759080047
       -0.015730498326590
        0.003579882285835
        0.020233107888538
        0.012065195359044
        0.003733469850398
        0.000000000000000
        0.000000000000000
       -0.001650415219202
       -0.004218250340292
       -0.001703245300087
        0.015183296864424
        0.025992563037140
        0.013243985498959
        0.003823806793906
        0.000000000000000
        0.000000000000000
        0.000000000000000
       -0.000630404327179
        0.001849795663896
        0.008718343099269
        0.011990590701610
        0.006737323273604
        0.001975243725132
        0.000000000000000
        0.000000000000000
        0.000000000000000
        0.000000000000000
        0.000902104996958
        0.002624197713965
        0.003224788391117
        0.001838790075319
        0.000000000000000
        0.000000000000000
        0.000000000000000
        0.000000000000000
        0.000000000000000
        0.000000000000000
        0.000000000000000
        0.000000000000000
        0.000000000000000
        0.000000000000000
        0.000000000000000
        0.000000000000000
        0.000000000000000
        0.000000000000000
        0.000000000000000
        0.000000000000000
        0.000000000000000
        0.000000000000000
        0.000000000000000
        0.000000000000000
        0.000000000000000
        0.000000000000000
        0.000000000000000
       -0.000767935534139
       -0.000619916582810
        0.000000000000000
        0.000000000000000
        0.000000000000000
        0.000000000000000
        0.000000000000000
        0.000000000000000
       -0.001475285272270
       -0.002404199015914
       -0.001607579396286
       -0.000243218729758
        0.000000000000000
        0.000000000000000
        0.000000000000000
        0.000000000000000
       -0.000919046087835
       -0.002679876874324
       -0.003771958126283
       -0.001701470476310
        0.000919204822409
        0.001146694658761
        0.000000000000000
        0.000000000000000
        0.000000000000000
       -0.000864314412339
       -0.002281699957891
       -0.002481431137252
        0.000781846387092
        0.003626599768432
        0.002762294699218
        0.000982699518699
        0.000000000000000
        0.000000000000000
        0.000000000000000
       -0.000862178764133
       -0.000161775443297
        0.002847148126346
        0.004702992849807
        0.003102366370655
        0.001029895408956
        0.000000000000000
        0.000000000000000
        0.000000000000000
        0.000000000000000
        0.000528102887457
        0.002089001434555
        0.002827203154325
        0.001671247405166
        0.000000000000000
        0.000000000000000
        0.000000000000000
        0.000000000000000
        0.000000000000000
        0.000000000000000
        0.000738723642431
        0.000879150587978
        0.000000000000000
        0.000000000000000
        0.000000000000000
        0.000000000000000
        0.000000000000000
        0.000000000000000
        0.000000000000000
        0.000000000000000
        0.000000000000000
        0.000000000000000
        0.000000000000000
        0.000000000000000
        0.000000000000000
        0.000000000000000
        0.000000000000000
        0.000000000000000
        0.000000000000000
        0.000000000000000
        0.000000000000000
        0.000000000000000
        0.000000000000000
        0.000000000000000
        0.000000000000000
        0.000000000000000
        0.000000000000000
        0.000000000000000
        0.000000000000000
        0.000000000000000
        0.000000000000000
        0.000000000000000
        0.000000000000000
        0.000000000000000
        0.000000000000000
        0.000000000000000
        0.000000000000000
        0.000000000000000
        0.000000000000000
        0.000000000000000
        0.000000000000000
        0.000000000000000
        0.000000000000000
        0.000000000000000
       -0.000426350826950
       -0.000208474834625
        0.000000000000000
        0.000000000000000
        0.000000000000000
        0.000000000000000
        0.000000000000000
        0.000000000000000
        0.000000000000000
       -0.000283777794779
        0.000134736922411
        0.000464501842696
        0.000000000000000
        0.000000000000000
        0.000000000000000
        0.000000000000000
        0.000000000000000
        0.000000000000000
        0.000000000000000
        0.000389239506960
        0.000580425910183
        0.000000000000000
        0.000000000000000
        0.000000000000000
        0.000000000000000
        0.000000000000000
        0.000000000000000
        0.000000000000000
        0.000000000000000
        0.000000000000000
        0.000000000000000
        0.000000000000000
        0.000000000000000
        0.000000000000000
        0.000000000000000
        0.000000000000000
        0.000000000000000
        0.000000000000000
        0.000000000000000
        0.000000000000000
        0.000000000000000
        0.000000000000000
        0.000000000000000
        0.000000000000000
        0.000000000000000
        0.000000000000000
        0.000000000000000
        0.000000000000000
        0.000000000000000
        0.000000000000000
        0.000000000000000
END_DATAGRID_3D
END_BLOCK_DATAGRID_3D
