ATOMS
         C    7.558905    7.558905    7.558905
         H    8.755769    8.755769    8.755769
         H    6.362040    6.362040    8.755769
         H    8.755769    6.362040    6.362040
         H    6.362040    8.755769    6.362040
BEGIN_BLOCK_DATAGRID_3D
units: coords = b, function = 1/hbar/H*b^-2
BEGIN_DATAGRID_3D_function
      9      9      9
0.0 0.0 0.0
   15.117809    0.000000    0.000000
    0.000000   15.117809    0.000000
    0.000000    0.000000   15.117809
        0.000000000000000
        0.000000000000000
        0.000000000000000
        0.000000000000000
        0.000000000000000
        0.000000000000000
        0.000000000000000
        0.000000000000000
        0.000000000000000
        0.000000000000000
        0.000000000000000
        0.000000000000000
        0.000000000000000
        0.000000000000000
        0.000000000000000
        0.000000000000000
        0.000000000000000
        0.000000000000000
        0.000000000000000
        0.000000000000000
        0.000000000000000
        0.000000000000000
        0.000000000000000
        0.000000000000000
        0.000000000000000
        0.000000000000000
        0.000000000000000
        0.000000000000000
        0.000000000000000
        0.000000000000000
        0.000000000000000
       -0.000000003281690
        0.000000002109700
        0.000000000000000
        0.000000000000000
        0.000000000000000
        0.000000000000000
        0.000000000000000
        0.000000000000000
       -0.000000002612048
       -0.000000000004781
        0.000000002612472
        0.000000000000000
        0.000000000000000
        0.000000000000000
        0.000000000000000
        0.000000000000000
        0.000000000000000
       -0.000000002114910
        0.000000003274152
        0.000000000000000
        0.000000000000000
        0.000000000000000
        0.000000000000000
        0.000000000000000
        0.000000000000000
        0.000000000000000
        0.000000000000000
        0.000000000000000
        0.000000000000000
        0.000000000000000
        0.000000000000000
        0.000000000000000
        0.000000000000000
        0.000000000000000
        0.000000000000000
        0.000000000000000
        0.000000000000000
        0.000000000000000
        0.000000000000000
        0.000000000000000
        0.000000000000000
        0.000000000000000
        0.000000000000000
        0.000000000000000
        0.000000000000000
        0.000000000000000
        0.000000000000000
        0.000000000000000
        0.000000000000000
        0.000000000000000
        0.000000000000000
        0.000000000000000
        0.000000000000000
        0.000000000000000
        0.000000000000000
        0.000000000000000
        0.000000000000000
        0.000000000000000
        0.000000000000000
        0.000000000000000
        0.000000000000000
        0.000000000000000
        0.000000000000000
       -0.000000001845942
        0.000000001674231
        0.000000000000000
        0.000000000000000
        0.000000000000000
        0.000000000000000
        0.000000000000000
        0.000000000000000
       -0.000000005672172
       -0.000000002243033
        0.000000001075568
        0.000000004156387
        0.000000000000000
        0.000000000000000
        0.000000000000000
        0.000000000000000
       -0.000000004783435
       -0.000000012604583
       -0.000000027546350
        0.000000023808430
        0.000000010580417
       -0.000000000029411
        0.000000000000000
        0.000000000000000
        0.000000000180879
       -0.000000008970942
       -0.000000047955953
       -0.000000000068785
        0.000000048040282
        0.000000009038675
       -0.000000000177069
        0.000000000000000
        0.000000000000000
        0.000000000034153
       -0.000000010517405
       -0.000000023802200
        0.000000027517587
        0.000000012639106
        0.000000004813870
        0.000000000000000
        0.000000000000000
        0.000000000000000
        0.000000000000000
       -0.000000004141602
       -0.000000001073456
        0.000000002239570
        0.000000005691844
        0.000000000000000
        0.000000000000000
        0.000000000000000
        0.000000000000000
        0.000000000000000
        0.000000000000000
       -0.000000001674921
        0.000000001844919
        0.000000000000000
        0.000000000000000
        0.000000000000000
        0.000000000000000
        0.000000000000000
        0.000000000000000
        0.000000000000000
        0.000000000000000
        0.000000000000000
        0.000000000000000
        0.000000000000000
        0.000000000000000
        0.000000000000000
        0.000000000000000
        0.000000000000000
        0.000000000000000
        0.000000000000000
        0.000000000000000
        0.000000000000000
        0.000000000000000
        0.000000000000000
        0.000000000000000
        0.000000000000000
        0.000000000000000
        0.000000000000000
       -0.000000003945282
       -0.000000003594136
        0.000000002450698
        0.000000002436296
        0.000000000000000
        0.000000000000000
        0.000000000000000
        0.000000000000000
       -0.000000008218879
        0.000000004674351
        0.000000033559131
       -0.000000029457693
       -0.000000017429496
        0.000000001853927
        0.000000000000000
        0.000000000000000
       -0.000000001342623
       -0.000000005583717
        0.000000356482226
        0.000000559809229
       -0.000000545690615
       -0.000000321114479
        0.000000013283273
        0.000000000000000
        0.000000000000000
       -0.000000012089846
        0.000000210924070
        0.000001347651450
        0.000000001734673
       -0.000001352154373
       -0.000000213252602
        0.000000012188472
        0.000000000000000
        0.000000000000000
       -0.000000013226737
        0.000000318579731
        0.000000547033669
       -0.000000558857366
       -0.000000358831217
        0.000000005379324
        0.000000001370630
        0.000000000000000
        0.000000000000000
       -0.000000001842779
        0.000000017248004
        0.000000029779264
       -0.000000033456366
       -0.000000004848173
        0.000000008259519
        0.000000000000000
        0.000000000000000
        0.000000000000000
        0.000000000000000
       -0.000000002431154
       -0.000000002447810
        0.000000003594406
        0.000000003953109
        0.000000000000000
        0.000000000000000
        0.000000000000000
        0.000000000000000
        0.000000000000000
        0.000000000000000
        0.000000000000000
        0.000000000000000
        0.000000000000000
        0.000000000000000
        0.000000000000000
        0.000000000000000
        0.000000000000000
        0.000000000000000
        0.000000000000000
        0.000000000000000
       -0.000000001203140
       -0.000000000046881
        0.000000000000000
        0.000000000000000
        0.000000000000000
        0.000000000000000
        0.000000000000000
       -0.000000002742317
       -0.000000007153197
        0.000000001046457
       -0.000000000507060
        0.000000003389758
       -0.000000000026283
        0.000000000000000
        0.000000000000000
       -0.000000001847727
        0.000000000143346
        0.000000094563411
       -0.000000055879199
       -0.000000196754679
       -0.000000015735260
        0.000000001667438
        0.000000000000000
        0.000000000000000
       -0.000000019023619
        0.000000333890497
        0.000000939553442
       -0.000001696799086
       -0.000003049675157
       -0.000000308860938
        0.000000014111996
       -0.000000000140610
       -0.000000000920836
       -0.000000033550678
        0.000001091842963
        0.000002898813683
        0.000000032197577
       -0.000002925156612
       -0.000001099999657
        0.000000033513316
        0.000000000941007
        0.000000000140309
       -0.000000014002549
        0.000000305725157
        0.000003033256880
        0.000001711893711
       -0.000000943264064
       -0.000000336874122
        0.000000019100972
        0.000000000000000
        0.000000000000000
       -0.000000001638325
        0.000000015562117
        0.000000195673413
        0.000000057071903
       -0.000000095053199
       -0.000000000294892
        0.000000001864987
        0.000000000000000
        0.000000000000000
        0.000000000026477
       -0.000000003373535
        0.000000000522191
       -0.000000001025281
        0.000000007162026
        0.000000002751734
        0.000000000000000
        0.000000000000000
        0.000000000000000
        0.000000000000000
        0.000000000000000
        0.000000000046194
        0.000000001202403
        0.000000000000000
        0.000000000000000
        0.000000000000000
        0.000000000000000
        0.000000000000000
        0.000000000000000
        0.000000000000000
       -0.000000000046194
       -0.000000003571457
       -0.000000000046881
        0.000000000000000
        0.000000000000000
        0.000000000000000
        0.000000000000000
       -0.000000000026477
       -0.000000004882837
        0.000000001610900
       -0.000000000783138
        0.000000001624950
       -0.000000004888739
       -0.000000000026283
        0.000000000000000
        0.000000000000000
       -0.000000004086320
        0.000000036740975
       -0.000000072200113
       -0.000000203864631
       -0.000000073451132
        0.000000037112212
       -0.000000004101080
        0.000000000000000
       -0.000000000140309
       -0.000000022034282
        0.000000474262117
       -0.000001534088307
       -0.000004039155861
       -0.000001549234855
        0.000000477340668
       -0.000000022018773
       -0.000000000140610
       -0.000000000000000
        0.000000000000000
        0.000000000000000
       -0.000000000000000
        0.000000000000000
       -0.000000000000000
       -0.000000000000000
        0.000000000000000
        0.000000000000000
        0.000000000140309
        0.000000022034282
       -0.000000474262117
        0.000001534088307
        0.000004039155861
        0.000001549234855
       -0.000000477340668
        0.000000022018773
        0.000000000140610
        0.000000000000000
        0.000000004086320
       -0.000000036740975
        0.000000072200113
        0.000000203864631
        0.000000073451132
       -0.000000037112212
        0.000000004101080
        0.000000000000000
        0.000000000000000
        0.000000000026477
        0.000000004882837
       -0.000000001610900
        0.000000000783138
       -0.000000001624950
        0.000000004888739
        0.000000000026283
        0.000000000000000
        0.000000000000000
        0.000000000000000
        0.000000000000000
        0.000000000046194
        0.000000003571457
        0.000000000046881
        0.000000000000000
        0.000000000000000
        0.000000000000000
        0.000000000000000
        0.000000000000000
        0.000000000000000
       -0.000000000046194
       -0.000000001202403
        0.000000000000000
        0.000000000000000
        0.000000000000000
        0.000000000000000
        0.000000000000000
       -0.000000000026477
        0.000000003373535
       -0.000000000522191
        0.000000001025281
       -0.000000007162026
       -0.000000002751734
        0.000000000000000
        0.000000000000000
        0.000000000000000
        0.000000001638325
       -0.000000015562117
       -0.000000195673413
       -0.000000057071903
        0.000000095053199
        0.000000000294892
       -0.000000001864987
        0.000000000000000
       -0.000000000140309
        0.000000014002549
       -0.000000305725157
       -0.000003033256880
       -0.000001711893711
        0.000000943264064
        0.000000336874122
       -0.000000019100972
        0.000000000000000
        0.000000000920836
        0.000000033550678
       -0.000001091842963
       -0.000002898813683
       -0.000000032197577
        0.000002925156612
        0.000001099999657
       -0.000000033513316
       -0.000000000941007
        0.000000000000000
        0.000000019023619
       -0.000000333890497
       -0.000000939553442
        0.000001696799086
        0.000003049675158
        0.000000308860938
       -0.000000014111996
        0.000000000140610
        0.000000000000000
        0.000000001847727
       -0.000000000143346
       -0.000000094563411
        0.000000055879199
        0.000000196754679
        0.000000015735260
       -0.000000001667438
        0.000000000000000
        0.000000000000000
        0.000000000000000
        0.000000002742317
        0.000000007153197
       -0.000000001046457
        0.000000000507060
       -0.000000003389758
        0.000000000026283
        0.000000000000000
        0.000000000000000
        0.000000000000000
        0.000000000000000
        0.000000000000000
        0.000000001203140
        0.000000000046881
        0.000000000000000
        0.000000000000000
        0.000000000000000
        0.000000000000000
        0.000000000000000
        0.000000000000000
        0.000000000000000
        0.000000000000000
        0.000000000000000
        0.000000000000000
        0.000000000000000
        0.000000000000000
        0.000000000000000
        0.000000000000000
        0.000000002431154
        0.000000002447810
       -0.000000003594406
       -0.000000003953109
        0.000000000000000
        0.000000000000000
        0.000000000000000
        0.000000000000000
        0.000000001842779
       -0.000000017248004
       -0.000000029779264
        0.000000033456366
        0.000000004848173
       -0.000000008259519
        0.000000000000000
        0.000000000000000
        0.000000000000000
        0.000000013226737
       -0.000000318579731
       -0.000000547033669
        0.000000558857366
        0.000000358831217
       -0.000000005379324
       -0.000000001370630
        0.000000000000000
        0.000000000000000
        0.000000012089846
       -0.000000210924070
       -0.000001347651450
       -0.000000001734673
        0.000001352154373
        0.000000213252602
       -0.000000012188472
        0.000000000000000
        0.000000000000000
        0.000000001342623
        0.000000005583717
       -0.000000356482226
       -0.000000559809229
        0.000000545690615
        0.000000321114479
       -0.000000013283273
        0.000000000000000
        0.000000000000000
        0.000000000000000
        0.000000008218879
       -0.000000004674351
       -0.000000033559131
        0.000000029457693
        0.000000017429496
       -0.000000001853927
        0.000000000000000
        0.000000000000000
        0.000000000000000
        0.000000000000000
        0.000000003945282
        0.000000003594136
       -0.000000002450698
       -0.000000002436296
        0.000000000000000
        0.000000000000000
        0.000000000000000
        0.000000000000000
        0.000000000000000
        0.000000000000000
        0.000000000000000
        0.000000000000000
        0.000000000000000
        0.000000000000000
        0.000000000000000
        0.000000000000000
        0.000000000000000
        0.000000000000000
        0.000000000000000
        0.000000000000000
        0.000000000000000
        0.000000000000000
        0.000000000000000
        0.000000000000000
        0.000000000000000
        0.000000000000000
        0.000000000000000
        0.000000001674921
       -0.000000001844919
        0.000000000000000
        0.000000000000000
        0.000000000000000
        0.000000000000000
        0.000000000000000
        0.000000000000000
        0.000000004141602
        0.000000001073456
       -0.000000002239570
       -0.000000005691844
        0.000000000000000
        0.000000000000000
        0.000000000000000
        0.000000000000000
       -0.000000000034153
        0.000000010517405
        0.000000023802200
       -0.000000027517587
       -0.000000012639106
       -0.000000004813870
        0.000000000000000
        0.000000000000000
        0.000000000000000
       -0.000000000180879
        0.000000008970942
        0.000000047955953
        0.000000000068785
       -0.000000048040282
       -0.000000009038675
        0.000000000177069
        0.000000000000000
        0.000000000000000
        0.000000000000000
        0.000000004783435
        0.000000012604583
        0.000000027546350
       -0.000000023808430
       -0.000000010580417
        0.000000000029411
        0.000000000000000
        0.000000000000000
        0.000000000000000
        0.000000000000000
        0.000000005672172
        0.000000002243033
       -0.000000001075568
       -0.000000004156387
        0.000000000000000
        0.000000000000000
        0.000000000000000
        0.000000000000000
        0.000000000000000
        0.000000000000000
        0.000000001845942
       -0.000000001674231
        0.000000000000000
        0.000000000000000
        0.000000000000000
        0.000000000000000
        0.000000000000000
        0.000000000000000
        0.000000000000000
        0.000000000000000
        0.000000000000000
        0.000000000000000
        0.000000000000000
        0.000000000000000
        0.000000000000000
        0.000000000000000
        0.000000000000000
        0.000000000000000
        0.000000000000000
        0.000000000000000
        0.000000000000000
        0.000000000000000
        0.000000000000000
        0.000000000000000
        0.000000000000000
        0.000000000000000
        0.000000000000000
        0.000000000000000
        0.000000000000000
        0.000000000000000
        0.000000000000000
        0.000000000000000
        0.000000000000000
        0.000000000000000
        0.000000000000000
        0.000000000000000
        0.000000000000000
        0.000000000000000
        0.000000000000000
        0.000000000000000
        0.000000000000000
        0.000000000000000
        0.000000000000000
        0.000000000000000
        0.000000002114910
       -0.000000003274152
        0.000000000000000
        0.000000000000000
        0.000000000000000
        0.000000000000000
        0.000000000000000
        0.000000000000000
        0.000000000000000
        0.000000002612048
        0.000000000004781
       -0.000000002612472
        0.000000000000000
        0.000000000000000
        0.000000000000000
        0.000000000000000
        0.000000000000000
        0.000000000000000
        0.000000000000000
        0.000000003281690
       -0.000000002109700
        0.000000000000000
        0.000000000000000
        0.000000000000000
        0.000000000000000
        0.000000000000000
        0.000000000000000
        0.000000000000000
        0.000000000000000
        0.000000000000000
        0.000000000000000
        0.000000000000000
        0.000000000000000
        0.000000000000000
        0.000000000000000
        0.000000000000000
        0.000000000000000
        0.000000000000000
        0.000000000000000
        0.000000000000000
        0.000000000000000
        0.000000000000000
        0.000000000000000
        0.000000000000000
        0.000000000000000
        0.000000000000000
        0.000000000000000
        0.000000000000000
        0.000000000000000
        0.000000000000000
        0.000000000000000
END_DATAGRID_3D
END_BLOCK_DATAGRID_3D
