ATOMS
         C    7.558905    7.558905    7.558905
         H    8.755769    8.755769    8.755769
         H    6.362040    6.362040    8.755769
         H    8.755769    6.362040    6.362040
         H    6.362040    8.755769    6.362040
BEGIN_BLOCK_DATAGRID_3D
units: coords = b, function = sqrt(b^-3)
BEGIN_DATAGRID_3D_function
      9      9      9
0.0 0.0 0.0
   15.117809    0.000000    0.000000
    0.000000   15.117809    0.000000
    0.000000    0.000000   15.117809
        0.000000000000000
        0.000000000000000
        0.000000000000000
        0.000000000000000
        0.000000000000000
        0.000000000000000
        0.000000000000000
        0.000000000000000
        0.000000000000000
        0.000000000000000
        0.000000000000000
        0.000000000000000
        0.000000000000000
        0.000000000000000
        0.000000000000000
        0.000000000000000
        0.000000000000000
        0.000000000000000
        0.000000000000000
        0.000000000000000
        0.000000000000000
        0.000000000000000
        0.000000000000000
        0.000000000000000
        0.000000000000000
        0.000000000000000
        0.000000000000000
        0.000000000000000
        0.000000000000000
        0.000000000000000
        0.000000000000000
        0.000407809775997
        0.000286564335917
        0.000000000000000
        0.000000000000000
        0.000000000000000
        0.000000000000000
        0.000000000000000
        0.000000000000000
        0.000645188250372
        0.000814961295390
        0.000446398305749
        0.000000000000000
        0.000000000000000
        0.000000000000000
        0.000000000000000
        0.000000000000000
        0.000000000000000
        0.000642568350619
        0.000685488169597
        0.000000000000000
        0.000000000000000
        0.000000000000000
        0.000000000000000
        0.000000000000000
        0.000000000000000
        0.000000000000000
        0.000000000000000
        0.000000000000000
        0.000000000000000
        0.000000000000000
        0.000000000000000
        0.000000000000000
        0.000000000000000
        0.000000000000000
        0.000000000000000
        0.000000000000000
        0.000000000000000
        0.000000000000000
        0.000000000000000
        0.000000000000000
        0.000000000000000
        0.000000000000000
        0.000000000000000
        0.000000000000000
        0.000000000000000
        0.000000000000000
        0.000000000000000
        0.000000000000000
        0.000000000000000
        0.000000000000000
        0.000000000000000
        0.000000000000000
        0.000000000000000
        0.000000000000000
        0.000000000000000
        0.000000000000000
        0.000000000000000
        0.000000000000000
        0.000000000000000
        0.000000000000000
        0.000000000000000
        0.000000000000000
        0.000000000000000
        0.000012882464267
       -0.000023777353140
        0.000000000000000
        0.000000000000000
        0.000000000000000
        0.000000000000000
        0.000000000000000
        0.000000000000000
        0.000462337954224
        0.000509273876731
        0.000222785495521
        0.000025375283971
        0.000000000000000
        0.000000000000000
        0.000000000000000
        0.000000000000000
        0.000951322219336
        0.002021028655377
        0.002320527930792
        0.001297305909583
        0.000354916013904
        0.000047696811306
        0.000000000000000
        0.000000000000000
        0.000575905861904
        0.002050519194118
        0.004207605510961
        0.004729892699595
        0.002708275030539
        0.000837398832171
        0.000129583698796
        0.000000000000000
        0.000000000000000
        0.000609149678718
        0.002170612024292
        0.004310189253863
        0.004610931351416
        0.002566808957405
        0.000767700048734
        0.000000000000000
        0.000000000000000
        0.000000000000000
        0.000000000000000
        0.001141599910756
        0.002318766466541
        0.002403602789622
        0.001268298033903
        0.000000000000000
        0.000000000000000
        0.000000000000000
        0.000000000000000
        0.000000000000000
        0.000000000000000
        0.000690867367570
        0.000705713472555
        0.000000000000000
        0.000000000000000
        0.000000000000000
        0.000000000000000
        0.000000000000000
        0.000000000000000
        0.000000000000000
        0.000000000000000
        0.000000000000000
        0.000000000000000
        0.000000000000000
        0.000000000000000
        0.000000000000000
        0.000000000000000
        0.000000000000000
        0.000000000000000
        0.000000000000000
        0.000000000000000
        0.000000000000000
        0.000000000000000
        0.000000000000000
        0.000000000000000
        0.000000000000000
        0.000000000000000
        0.000000000000000
       -0.000142532532961
       -0.000364308504665
       -0.000432588654235
       -0.000253343647882
        0.000000000000000
        0.000000000000000
        0.000000000000000
        0.000000000000000
        0.000465362764129
        0.000753759823948
        0.000282105215021
       -0.000550164205264
       -0.000512256496078
       -0.000190667149445
        0.000000000000000
        0.000000000000000
        0.000757257426269
        0.002899042847267
        0.006284802327568
        0.006867256911672
        0.002166403915702
        0.000036815894218
       -0.000155051945433
        0.000000000000000
        0.000000000000000
        0.001766204217026
        0.007117728740877
        0.017880224005770
        0.021661449322724
        0.009298500423465
        0.001869785901119
        0.000154251020349
        0.000000000000000
        0.000000000000000
        0.001952677061242
        0.007943567882679
        0.019467174791146
        0.020397914952533
        0.009199074692159
        0.002301977787229
        0.000292052692532
        0.000000000000000
        0.000000000000000
        0.001047410937658
        0.004075052938505
        0.008599605337754
        0.008813750412918
        0.004497675659075
        0.001208226356275
        0.000000000000000
        0.000000000000000
        0.000000000000000
        0.000000000000000
        0.001120158109210
        0.002267408407834
        0.002333790405745
        0.001219071329209
        0.000000000000000
        0.000000000000000
        0.000000000000000
        0.000000000000000
        0.000000000000000
        0.000000000000000
        0.000000000000000
        0.000000000000000
        0.000000000000000
        0.000000000000000
        0.000000000000000
        0.000000000000000
        0.000000000000000
        0.000000000000000
        0.000000000000000
        0.000000000000000
       -0.000352926465280
       -0.000317521298167
        0.000000000000000
        0.000000000000000
        0.000000000000000
        0.000000000000000
        0.000000000000000
       -0.000364225485803
       -0.001108803357292
       -0.001915455552855
       -0.001723405914205
       -0.000868646883435
       -0.000263121633185
        0.000000000000000
        0.000000000000000
        0.000047732669112
       -0.000226775591197
       -0.001974238980064
       -0.005191161332354
       -0.005374195304889
       -0.002523163993276
       -0.000722249168729
        0.000000000000000
        0.000000000000000
        0.001026168663764
        0.003676661838958
        0.007175559411393
        0.002622652511140
       -0.007001016162692
       -0.003662479395045
       -0.001044618560862
       -0.000182678658826
        0.000399260034398
        0.002842156936010
        0.014025116224301
        0.045929221466527
        0.057472576551738
        0.013744379501937
       -0.000057416926236
       -0.000591128704952
       -0.000147303387880
        0.000445075240409
        0.003316756568678
        0.017003901354353
        0.056900211854306
        0.057345588301759
        0.018271025027328
        0.002753572666556
        0.000115376254061
        0.000000000000000
        0.000000000000000
        0.001909889377648
        0.007746838469653
        0.018876445128721
        0.019434694195384
        0.008526356172350
        0.002042343305090
        0.000232038112767
        0.000000000000000
        0.000000000000000
        0.000585702055087
        0.002076544719722
        0.004073493484118
        0.004272517989097
        0.002311878047845
        0.000658549119562
        0.000000000000000
        0.000000000000000
        0.000000000000000
        0.000000000000000
        0.000000000000000
        0.000595168955154
        0.000624804483177
        0.000000000000000
        0.000000000000000
        0.000000000000000
        0.000000000000000
        0.000000000000000
        0.000000000000000
        0.000000000000000
       -0.000458603111392
       -0.000694221806041
       -0.000472742997511
        0.000000000000000
        0.000000000000000
        0.000000000000000
        0.000000000000000
       -0.000242208259084
       -0.001058497410947
       -0.002760144765057
       -0.004028090775969
       -0.003145702986078
       -0.001427987671814
       -0.000373199142865
        0.000000000000000
        0.000000000000000
       -0.000463793000461
       -0.002815970793327
       -0.010149470413949
       -0.018444364193488
       -0.013089210512187
       -0.004965420242589
       -0.001233264250421
        0.000000000000000
        0.000058271282331
        0.000126541051045
       -0.001905046602007
       -0.016991754711323
       -0.048923878068270
       -0.034200820903184
       -0.010368290204783
       -0.002198011920768
       -0.000303168880995
        0.000332293509912
        0.001942151909926
        0.009005343963780
        0.024128322309138
        0.000082414091759
       -0.024511046056040
       -0.009329827143081
       -0.002061745462315
       -0.000357631994544
        0.000387631533810
        0.002721122424849
        0.013233064278164
        0.042168693668752
        0.048975317480789
        0.008626795136980
       -0.001379969697016
       -0.000821488168357
       -0.000176557022643
        0.000000000000000
        0.001661549824551
        0.006592655237434
        0.016126425190361
        0.018458218726186
        0.007016027391427
        0.001044582620888
       -0.000034478303130
        0.000000000000000
        0.000000000000000
        0.000537963251168
        0.001876391685558
        0.003749036588250
        0.004030324937576
        0.002140776305758
        0.000579285363612
        0.000060385953366
        0.000000000000000
        0.000000000000000
        0.000000000000000
        0.000000000000000
        0.000573077714218
        0.000694401835412
        0.000356620606964
        0.000000000000000
        0.000000000000000
        0.000000000000000
        0.000000000000000
        0.000000000000000
        0.000000000000000
       -0.000475142581722
       -0.000578233624039
        0.000000000000000
        0.000000000000000
        0.000000000000000
        0.000000000000000
        0.000000000000000
       -0.000308652219140
       -0.001303682130715
       -0.003063960887736
       -0.003987728899608
       -0.002810356710090
       -0.001116756105136
        0.000000000000000
        0.000000000000000
        0.000000000000000
       -0.000856481489738
       -0.004367385332665
       -0.013112405575969
       -0.018023899532936
       -0.011274826784341
       -0.004290262268728
       -0.000981827255796
        0.000000000000000
       -0.000064934222529
       -0.001000898291963
       -0.007944902714374
       -0.035702434716574
       -0.053660095328989
       -0.029074599741365
       -0.009416408433199
       -0.002110426402401
        0.000000000000000
        0.000046642781743
        0.000005506539885
       -0.002697098548145
       -0.020752282509097
       -0.057421137139217
       -0.039318405268140
       -0.011690842975564
       -0.002428371384173
       -0.000332422515757
        0.000000000000000
        0.000858209935167
        0.002742417651515
        0.003464392189085
       -0.006244298959728
       -0.014537269441900
       -0.005731522945412
       -0.001411151144021
       -0.000226447665429
        0.000000000000000
        0.000661096239505
        0.002392628922064
        0.004681405990607
        0.003799209425867
       -0.000486139992393
       -0.000985504126268
       -0.000392923916876
        0.000000000000000
        0.000000000000000
        0.000000000000000
        0.000806385821671
        0.001599841462041
        0.001633893206258
        0.000696907493288
        0.000066456294796
       -0.000029922758087
        0.000000000000000
        0.000000000000000
        0.000000000000000
        0.000000000000000
        0.000000000000000
        0.000306726493368
        0.000195675694653
        0.000000000000000
        0.000000000000000
        0.000000000000000
        0.000000000000000
        0.000000000000000
        0.000000000000000
        0.000000000000000
        0.000000000000000
        0.000000000000000
        0.000000000000000
        0.000000000000000
        0.000000000000000
        0.000000000000000
        0.000000000000000
       -0.000749033196444
       -0.001736525629535
       -0.002116513504895
       -0.001335875280942
        0.000000000000000
        0.000000000000000
        0.000000000000000
        0.000000000000000
       -0.000558552898090
       -0.002557821140672
       -0.006323108316072
       -0.008026872363754
       -0.005252325640770
       -0.001923268678783
        0.000000000000000
        0.000000000000000
        0.000000000000000
       -0.000899269173333
       -0.004564114745691
       -0.013703135238394
       -0.018987120290084
       -0.011947545304150
       -0.004549896750867
       -0.001041841835561
        0.000000000000000
        0.000000000000000
       -0.000568447392936
       -0.003341044296770
       -0.011903269229357
       -0.021647594790025
       -0.015371683544224
       -0.005790623522821
       -0.001421993573901
        0.000000000000000
        0.000000000000000
       -0.000048428517652
       -0.000733189516400
       -0.003577635317025
       -0.008259208818159
       -0.008026739212984
       -0.003545484013761
       -0.000960121140172
        0.000000000000000
        0.000000000000000
        0.000000000000000
        0.000224561711075
       -0.000009759759413
       -0.001062479245855
       -0.001765094282783
       -0.001063062473926
       -0.000326517888226
        0.000000000000000
        0.000000000000000
        0.000000000000000
        0.000000000000000
        0.000258190758081
        0.000148366029277
       -0.000107373936256
       -0.000131449154367
        0.000000000000000
        0.000000000000000
        0.000000000000000
        0.000000000000000
        0.000000000000000
        0.000000000000000
        0.000000000000000
        0.000000000000000
        0.000000000000000
        0.000000000000000
        0.000000000000000
        0.000000000000000
        0.000000000000000
        0.000000000000000
        0.000000000000000
        0.000000000000000
        0.000000000000000
        0.000000000000000
        0.000000000000000
        0.000000000000000
        0.000000000000000
        0.000000000000000
        0.000000000000000
       -0.000545112348139
       -0.000624792583908
        0.000000000000000
        0.000000000000000
        0.000000000000000
        0.000000000000000
        0.000000000000000
        0.000000000000000
       -0.000770474997990
       -0.001787883688243
       -0.002186325888772
       -0.001385101985636
        0.000000000000000
        0.000000000000000
        0.000000000000000
        0.000000000000000
       -0.000332099842771
       -0.001397749435285
       -0.003300656657480
       -0.004326142261927
       -0.003065287619649
       -0.001225907034308
        0.000000000000000
        0.000000000000000
        0.000000000000000
       -0.000280150869820
       -0.001232624919507
       -0.003218713687768
       -0.004727658537988
       -0.003713201710859
       -0.001686101140373
       -0.000442396888295
        0.000000000000000
        0.000000000000000
        0.000000000000000
       -0.000509161883469
       -0.001529990550628
       -0.002602090277388
       -0.002323804330500
       -0.001157106602543
       -0.000340741202578
        0.000000000000000
        0.000000000000000
        0.000000000000000
        0.000000000000000
       -0.000346679729104
       -0.000725216352119
       -0.000762748086012
       -0.000410168086221
        0.000000000000000
        0.000000000000000
        0.000000000000000
        0.000000000000000
        0.000000000000000
        0.000000000000000
       -0.000093501130768
       -0.000124266382856
        0.000000000000000
        0.000000000000000
        0.000000000000000
        0.000000000000000
        0.000000000000000
        0.000000000000000
        0.000000000000000
        0.000000000000000
        0.000000000000000
        0.000000000000000
        0.000000000000000
        0.000000000000000
        0.000000000000000
        0.000000000000000
        0.000000000000000
        0.000000000000000
        0.000000000000000
        0.000000000000000
        0.000000000000000
        0.000000000000000
        0.000000000000000
        0.000000000000000
        0.000000000000000
        0.000000000000000
        0.000000000000000
        0.000000000000000
        0.000000000000000
        0.000000000000000
        0.000000000000000
        0.000000000000000
        0.000000000000000
        0.000000000000000
        0.000000000000000
        0.000000000000000
        0.000000000000000
        0.000000000000000
        0.000000000000000
        0.000000000000000
        0.000000000000000
        0.000000000000000
        0.000000000000000
        0.000000000000000
       -0.000522541977186
       -0.000638917310459
        0.000000000000000
        0.000000000000000
        0.000000000000000
        0.000000000000000
        0.000000000000000
        0.000000000000000
        0.000000000000000
       -0.000530713647547
       -0.000814781266019
       -0.000562520696296
        0.000000000000000
        0.000000000000000
        0.000000000000000
        0.000000000000000
        0.000000000000000
        0.000000000000000
        0.000000000000000
       -0.000454009747909
       -0.000408409939432
        0.000000000000000
        0.000000000000000
        0.000000000000000
        0.000000000000000
        0.000000000000000
        0.000000000000000
        0.000000000000000
        0.000000000000000
        0.000000000000000
        0.000000000000000
        0.000000000000000
        0.000000000000000
        0.000000000000000
        0.000000000000000
        0.000000000000000
        0.000000000000000
        0.000000000000000
        0.000000000000000
        0.000000000000000
        0.000000000000000
        0.000000000000000
        0.000000000000000
        0.000000000000000
        0.000000000000000
        0.000000000000000
        0.000000000000000
        0.000000000000000
        0.000000000000000
        0.000000000000000
        0.000000000000000
END_DATAGRID_3D
END_BLOCK_DATAGRID_3D
