ATOMS
         C    7.558905    7.558905    7.558905
         H    8.755769    8.755769    8.755769
         H    6.362040    6.362040    8.755769
         H    8.755769    6.362040    6.362040
         H    6.362040    8.755769    6.362040
BEGIN_BLOCK_DATAGRID_3D
units: coords = b, function = 1/hbar/H*b^-2
BEGIN_DATAGRID_3D_function
      9      9      9
0.0 0.0 0.0
   15.117809    0.000000    0.000000
    0.000000   15.117809    0.000000
    0.000000    0.000000   15.117809
        0.000000000000000
        0.000000000000000
        0.000000000000000
        0.000000000000000
        0.000000000000000
        0.000000000000000
        0.000000000000000
        0.000000000000000
        0.000000000000000
        0.000000000000000
        0.000000000000000
        0.000000000000000
        0.000000000000000
        0.000000000000000
        0.000000000000000
        0.000000000000000
        0.000000000000000
        0.000000000000000
        0.000000000000000
        0.000000000000000
        0.000000000000000
        0.000000000000000
        0.000000000000000
        0.000000000000000
        0.000000000000000
        0.000000000000000
        0.000000000000000
        0.000000000000000
        0.000000000000000
        0.000000000000000
        0.000000000000000
       -0.000000000587886
        0.000000000395766
        0.000000000000000
        0.000000000000000
        0.000000000000000
        0.000000000000000
        0.000000000000000
        0.000000000000000
       -0.000000000302629
       -0.000000000001465
        0.000000000299684
        0.000000000000000
        0.000000000000000
        0.000000000000000
        0.000000000000000
        0.000000000000000
        0.000000000000000
       -0.000000000397531
        0.000000000584743
        0.000000000000000
        0.000000000000000
        0.000000000000000
        0.000000000000000
        0.000000000000000
        0.000000000000000
        0.000000000000000
        0.000000000000000
        0.000000000000000
        0.000000000000000
        0.000000000000000
        0.000000000000000
        0.000000000000000
        0.000000000000000
        0.000000000000000
        0.000000000000000
        0.000000000000000
        0.000000000000000
        0.000000000000000
        0.000000000000000
        0.000000000000000
        0.000000000000000
        0.000000000000000
        0.000000000000000
        0.000000000000000
        0.000000000000000
        0.000000000000000
        0.000000000000000
        0.000000000000000
        0.000000000000000
        0.000000000000000
        0.000000000000000
        0.000000000000000
        0.000000000000000
        0.000000000000000
        0.000000000000000
        0.000000000000000
        0.000000000000000
        0.000000000000000
        0.000000000000000
        0.000000000000000
        0.000000000000000
        0.000000000000000
        0.000000000000000
       -0.000000000413657
        0.000000000383268
        0.000000000000000
        0.000000000000000
        0.000000000000000
        0.000000000000000
        0.000000000000000
        0.000000000000000
       -0.000000001113996
        0.000000000044108
       -0.000000000096156
        0.000000000752895
        0.000000000000000
        0.000000000000000
        0.000000000000000
        0.000000000000000
       -0.000000000724502
       -0.000000002292134
       -0.000000005757436
        0.000000003656800
        0.000000002780916
       -0.000000000166715
        0.000000000000000
        0.000000000000000
        0.000000000097828
       -0.000000001233789
       -0.000000010712196
        0.000000000015044
        0.000000010742721
        0.000000001239979
       -0.000000000094583
        0.000000000000000
        0.000000000000000
        0.000000000167795
       -0.000000002769875
       -0.000000003657540
        0.000000005774772
        0.000000002296524
        0.000000000723860
        0.000000000000000
        0.000000000000000
        0.000000000000000
        0.000000000000000
       -0.000000000752393
        0.000000000100746
       -0.000000000040741
        0.000000001112916
        0.000000000000000
        0.000000000000000
        0.000000000000000
        0.000000000000000
        0.000000000000000
        0.000000000000000
       -0.000000000382414
        0.000000000416427
        0.000000000000000
        0.000000000000000
        0.000000000000000
        0.000000000000000
        0.000000000000000
        0.000000000000000
        0.000000000000000
        0.000000000000000
        0.000000000000000
        0.000000000000000
        0.000000000000000
        0.000000000000000
        0.000000000000000
        0.000000000000000
        0.000000000000000
        0.000000000000000
        0.000000000000000
        0.000000000000000
        0.000000000000000
        0.000000000000000
        0.000000000000000
        0.000000000000000
        0.000000000000000
        0.000000000000000
        0.000000000000000
       -0.000000000776054
       -0.000000000528514
        0.000000000395567
        0.000000000448218
        0.000000000000000
        0.000000000000000
        0.000000000000000
        0.000000000000000
       -0.000000001513394
        0.000000000285448
        0.000000003303794
       -0.000000004416835
       -0.000000001380462
        0.000000000250385
        0.000000000000000
        0.000000000000000
        0.000000000084957
       -0.000000003326996
        0.000000054075186
        0.000000096495949
       -0.000000072323121
       -0.000000057729132
        0.000000003430862
        0.000000000000000
        0.000000000000000
       -0.000000001822561
        0.000000025550542
        0.000000226936262
       -0.000000000498880
       -0.000000227544033
       -0.000000025632037
        0.000000001839649
        0.000000000000000
        0.000000000000000
       -0.000000003410700
        0.000000057586164
        0.000000073002106
       -0.000000096638106
       -0.000000054264419
        0.000000003324875
       -0.000000000084572
        0.000000000000000
        0.000000000000000
       -0.000000000249267
        0.000000001370414
        0.000000004509282
       -0.000000003279886
       -0.000000000306400
        0.000000001507698
        0.000000000000000
        0.000000000000000
        0.000000000000000
        0.000000000000000
       -0.000000000449429
       -0.000000000393535
        0.000000000533036
        0.000000000773726
        0.000000000000000
        0.000000000000000
        0.000000000000000
        0.000000000000000
        0.000000000000000
        0.000000000000000
        0.000000000000000
        0.000000000000000
        0.000000000000000
        0.000000000000000
        0.000000000000000
        0.000000000000000
        0.000000000000000
        0.000000000000000
        0.000000000000000
        0.000000000000000
       -0.000000000230905
        0.000000000010270
        0.000000000000000
        0.000000000000000
        0.000000000000000
        0.000000000000000
        0.000000000000000
       -0.000000000498967
       -0.000000001170196
        0.000000000481434
       -0.000000000500694
        0.000000000644487
        0.000000000000367
        0.000000000000000
        0.000000000000000
       -0.000000000223039
       -0.000000000789962
        0.000000011845796
       -0.000000006980207
       -0.000000022419370
       -0.000000002738443
        0.000000000214214
        0.000000000000000
        0.000000000000000
       -0.000000003605802
        0.000000048903051
        0.000000166248457
       -0.000000273852946
       -0.000000523006292
       -0.000000038233388
        0.000000002591874
        0.000000000002630
       -0.000000000024758
       -0.000000009889626
        0.000000191789813
        0.000000765262788
        0.000000001753336
       -0.000000769486935
       -0.000000192481831
        0.000000009962720
        0.000000000025606
       -0.000000000002175
       -0.000000002560718
        0.000000038195969
        0.000000520095850
        0.000000273489502
       -0.000000166838332
       -0.000000049092957
        0.000000003623169
        0.000000000000000
        0.000000000000000
       -0.000000000209467
        0.000000002764921
        0.000000022396403
        0.000000007072865
       -0.000000011870877
        0.000000000769104
        0.000000000223986
        0.000000000000000
        0.000000000000000
       -0.000000000000861
       -0.000000000642504
        0.000000000514337
       -0.000000000463072
        0.000000001167779
        0.000000000497842
        0.000000000000000
        0.000000000000000
        0.000000000000000
        0.000000000000000
        0.000000000000000
       -0.000000000009685
        0.000000000230883
        0.000000000000000
        0.000000000000000
        0.000000000000000
        0.000000000000000
        0.000000000000000
        0.000000000000000
        0.000000000000000
        0.000000000009685
       -0.000000000683851
        0.000000000010270
        0.000000000000000
        0.000000000000000
        0.000000000000000
        0.000000000000000
        0.000000000000861
       -0.000000000866688
        0.000000000449512
       -0.000000000360939
        0.000000000459632
       -0.000000000860897
        0.000000000000367
        0.000000000000000
        0.000000000000000
       -0.000000000515113
        0.000000003695982
       -0.000000008218659
       -0.000000021802487
       -0.000000008344958
        0.000000003744854
       -0.000000000513510
        0.000000000000000
        0.000000000002175
       -0.000000006312894
        0.000000094866545
       -0.000000277322232
       -0.000000675799435
       -0.000000280380869
        0.000000095226568
       -0.000000006322204
        0.000000000002630
       -0.000000000000000
       -0.000000000000000
        0.000000000000000
       -0.000000000000000
       -0.000000000000000
       -0.000000000000000
       -0.000000000000000
        0.000000000000000
       -0.000000000000000
       -0.000000000002175
        0.000000006312894
       -0.000000094866545
        0.000000277322232
        0.000000675799435
        0.000000280380869
       -0.000000095226568
        0.000000006322204
       -0.000000000002630
        0.000000000000000
        0.000000000515113
       -0.000000003695982
        0.000000008218659
        0.000000021802487
        0.000000008344958
       -0.000000003744854
        0.000000000513510
        0.000000000000000
        0.000000000000000
       -0.000000000000861
        0.000000000866688
       -0.000000000449512
        0.000000000360939
       -0.000000000459632
        0.000000000860897
       -0.000000000000367
        0.000000000000000
        0.000000000000000
        0.000000000000000
        0.000000000000000
       -0.000000000009685
        0.000000000683851
       -0.000000000010270
        0.000000000000000
        0.000000000000000
        0.000000000000000
        0.000000000000000
        0.000000000000000
        0.000000000000000
        0.000000000009685
       -0.000000000230883
        0.000000000000000
        0.000000000000000
        0.000000000000000
        0.000000000000000
        0.000000000000000
        0.000000000000861
        0.000000000642504
       -0.000000000514337
        0.000000000463072
       -0.000000001167779
       -0.000000000497842
        0.000000000000000
        0.000000000000000
        0.000000000000000
        0.000000000209467
       -0.000000002764921
       -0.000000022396403
       -0.000000007072865
        0.000000011870877
       -0.000000000769104
       -0.000000000223986
        0.000000000000000
        0.000000000002175
        0.000000002560718
       -0.000000038195969
       -0.000000520095850
       -0.000000273489502
        0.000000166838332
        0.000000049092957
       -0.000000003623169
        0.000000000000000
        0.000000000024758
        0.000000009889626
       -0.000000191789813
       -0.000000765262788
       -0.000000001753336
        0.000000769486935
        0.000000192481831
       -0.000000009962720
       -0.000000000025606
        0.000000000000000
        0.000000003605802
       -0.000000048903051
       -0.000000166248457
        0.000000273852946
        0.000000523006292
        0.000000038233388
       -0.000000002591874
       -0.000000000002630
        0.000000000000000
        0.000000000223039
        0.000000000789962
       -0.000000011845796
        0.000000006980207
        0.000000022419370
        0.000000002738443
       -0.000000000214214
        0.000000000000000
        0.000000000000000
        0.000000000000000
        0.000000000498967
        0.000000001170196
       -0.000000000481434
        0.000000000500694
       -0.000000000644487
       -0.000000000000367
        0.000000000000000
        0.000000000000000
        0.000000000000000
        0.000000000000000
        0.000000000000000
        0.000000000230905
       -0.000000000010270
        0.000000000000000
        0.000000000000000
        0.000000000000000
        0.000000000000000
        0.000000000000000
        0.000000000000000
        0.000000000000000
        0.000000000000000
        0.000000000000000
        0.000000000000000
        0.000000000000000
        0.000000000000000
        0.000000000000000
        0.000000000000000
        0.000000000449429
        0.000000000393535
       -0.000000000533036
       -0.000000000773726
        0.000000000000000
        0.000000000000000
        0.000000000000000
        0.000000000000000
        0.000000000249267
       -0.000000001370414
       -0.000000004509282
        0.000000003279886
        0.000000000306400
       -0.000000001507698
        0.000000000000000
        0.000000000000000
        0.000000000000000
        0.000000003410700
       -0.000000057586164
       -0.000000073002106
        0.000000096638106
        0.000000054264419
       -0.000000003324875
        0.000000000084572
        0.000000000000000
        0.000000000000000
        0.000000001822561
       -0.000000025550542
       -0.000000226936262
        0.000000000498880
        0.000000227544033
        0.000000025632037
       -0.000000001839649
        0.000000000000000
        0.000000000000000
       -0.000000000084957
        0.000000003326996
       -0.000000054075186
       -0.000000096495949
        0.000000072323121
        0.000000057729132
       -0.000000003430862
        0.000000000000000
        0.000000000000000
        0.000000000000000
        0.000000001513394
       -0.000000000285448
       -0.000000003303794
        0.000000004416835
        0.000000001380462
       -0.000000000250385
        0.000000000000000
        0.000000000000000
        0.000000000000000
        0.000000000000000
        0.000000000776054
        0.000000000528514
       -0.000000000395567
       -0.000000000448218
        0.000000000000000
        0.000000000000000
        0.000000000000000
        0.000000000000000
        0.000000000000000
        0.000000000000000
        0.000000000000000
        0.000000000000000
        0.000000000000000
        0.000000000000000
        0.000000000000000
        0.000000000000000
        0.000000000000000
        0.000000000000000
        0.000000000000000
        0.000000000000000
        0.000000000000000
        0.000000000000000
        0.000000000000000
        0.000000000000000
        0.000000000000000
        0.000000000000000
        0.000000000000000
        0.000000000382414
       -0.000000000416427
        0.000000000000000
        0.000000000000000
        0.000000000000000
        0.000000000000000
        0.000000000000000
        0.000000000000000
        0.000000000752393
       -0.000000000100746
        0.000000000040741
       -0.000000001112916
        0.000000000000000
        0.000000000000000
        0.000000000000000
        0.000000000000000
       -0.000000000167795
        0.000000002769875
        0.000000003657540
       -0.000000005774772
       -0.000000002296524
       -0.000000000723860
        0.000000000000000
        0.000000000000000
        0.000000000000000
       -0.000000000097828
        0.000000001233789
        0.000000010712196
       -0.000000000015044
       -0.000000010742721
       -0.000000001239979
        0.000000000094583
        0.000000000000000
        0.000000000000000
        0.000000000000000
        0.000000000724502
        0.000000002292134
        0.000000005757436
       -0.000000003656800
       -0.000000002780916
        0.000000000166715
        0.000000000000000
        0.000000000000000
        0.000000000000000
        0.000000000000000
        0.000000001113996
       -0.000000000044108
        0.000000000096156
       -0.000000000752895
        0.000000000000000
        0.000000000000000
        0.000000000000000
        0.000000000000000
        0.000000000000000
        0.000000000000000
        0.000000000413657
       -0.000000000383268
        0.000000000000000
        0.000000000000000
        0.000000000000000
        0.000000000000000
        0.000000000000000
        0.000000000000000
        0.000000000000000
        0.000000000000000
        0.000000000000000
        0.000000000000000
        0.000000000000000
        0.000000000000000
        0.000000000000000
        0.000000000000000
        0.000000000000000
        0.000000000000000
        0.000000000000000
        0.000000000000000
        0.000000000000000
        0.000000000000000
        0.000000000000000
        0.000000000000000
        0.000000000000000
        0.000000000000000
        0.000000000000000
        0.000000000000000
        0.000000000000000
        0.000000000000000
        0.000000000000000
        0.000000000000000
        0.000000000000000
        0.000000000000000
        0.000000000000000
        0.000000000000000
        0.000000000000000
        0.000000000000000
        0.000000000000000
        0.000000000000000
        0.000000000000000
        0.000000000000000
        0.000000000000000
        0.000000000000000
        0.000000000397531
       -0.000000000584743
        0.000000000000000
        0.000000000000000
        0.000000000000000
        0.000000000000000
        0.000000000000000
        0.000000000000000
        0.000000000000000
        0.000000000302629
        0.000000000001465
       -0.000000000299684
        0.000000000000000
        0.000000000000000
        0.000000000000000
        0.000000000000000
        0.000000000000000
        0.000000000000000
        0.000000000000000
        0.000000000587886
       -0.000000000395766
        0.000000000000000
        0.000000000000000
        0.000000000000000
        0.000000000000000
        0.000000000000000
        0.000000000000000
        0.000000000000000
        0.000000000000000
        0.000000000000000
        0.000000000000000
        0.000000000000000
        0.000000000000000
        0.000000000000000
        0.000000000000000
        0.000000000000000
        0.000000000000000
        0.000000000000000
        0.000000000000000
        0.000000000000000
        0.000000000000000
        0.000000000000000
        0.000000000000000
        0.000000000000000
        0.000000000000000
        0.000000000000000
        0.000000000000000
        0.000000000000000
        0.000000000000000
        0.000000000000000
        0.000000000000000
END_DATAGRID_3D
END_BLOCK_DATAGRID_3D
