ATOMS
         C    7.558905    7.558905    7.558905
         H    8.755769    8.755769    8.755769
         H    6.362040    6.362040    8.755769
         H    8.755769    6.362040    6.362040
         H    6.362040    8.755769    6.362040
BEGIN_BLOCK_DATAGRID_3D
units: coords = b, function = sqrt(b^-3)
BEGIN_DATAGRID_3D_function
      9      9      9
0.0 0.0 0.0
   15.117809    0.000000    0.000000
    0.000000   15.117809    0.000000
    0.000000    0.000000   15.117809
        0.000000000000000
        0.000000000000000
        0.000000000000000
        0.000000000000000
        0.000000000000000
        0.000000000000000
        0.000000000000000
        0.000000000000000
        0.000000000000000
        0.000000000000000
        0.000000000000000
        0.000000000000000
        0.000000000000000
        0.000000000000000
        0.000000000000000
        0.000000000000000
        0.000000000000000
        0.000000000000000
        0.000000000000000
        0.000000000000000
        0.000000000000000
        0.000000000000000
        0.000000000000000
        0.000000000000000
        0.000000000000000
        0.000000000000000
        0.000000000000000
        0.000000000000000
        0.000000000000000
        0.000000000000000
        0.000000000000000
       -0.001184869249406
       -0.001145748889047
        0.000000000000000
        0.000000000000000
        0.000000000000000
        0.000000000000000
        0.000000000000000
        0.000000000000000
       -0.000709584432375
       -0.001381893979357
       -0.001144150394416
        0.000000000000000
        0.000000000000000
        0.000000000000000
        0.000000000000000
        0.000000000000000
        0.000000000000000
       -0.000434678295236
       -0.000669057177181
        0.000000000000000
        0.000000000000000
        0.000000000000000
        0.000000000000000
        0.000000000000000
        0.000000000000000
        0.000000000000000
        0.000000000000000
        0.000000000000000
        0.000000000000000
        0.000000000000000
        0.000000000000000
        0.000000000000000
        0.000000000000000
        0.000000000000000
        0.000000000000000
        0.000000000000000
        0.000000000000000
        0.000000000000000
        0.000000000000000
        0.000000000000000
        0.000000000000000
        0.000000000000000
        0.000000000000000
        0.000000000000000
        0.000000000000000
        0.000000000000000
        0.000000000000000
        0.000000000000000
        0.000000000000000
        0.000000000000000
        0.000000000000000
        0.000000000000000
        0.000000000000000
        0.000000000000000
        0.000000000000000
        0.000000000000000
        0.000000000000000
        0.000000000000000
        0.000000000000000
        0.000000000000000
        0.000000000000000
        0.000000000000000
        0.000000000000000
       -0.001241305383039
       -0.001246327917311
        0.000000000000000
        0.000000000000000
        0.000000000000000
        0.000000000000000
        0.000000000000000
        0.000000000000000
       -0.002119182363880
       -0.004194609701233
       -0.004189259540270
       -0.002116962608291
        0.000000000000000
        0.000000000000000
        0.000000000000000
        0.000000000000000
       -0.001136308588878
       -0.004177243632022
       -0.007968163477800
       -0.007769008739453
       -0.004038740056431
       -0.001163561696256
        0.000000000000000
        0.000000000000000
       -0.000108184056209
       -0.001105396951182
       -0.004202899281709
       -0.008018946200297
       -0.007544964201961
       -0.003827946494496
       -0.001108228153064
        0.000000000000000
        0.000000000000000
        0.000024621349778
       -0.000298279364128
       -0.001782511444110
       -0.003782415543584
       -0.003592699423240
       -0.001783954605213
        0.000000000000000
        0.000000000000000
        0.000000000000000
        0.000000000000000
        0.000105478541806
       -0.000150511003339
       -0.000743083555831
       -0.000802954043269
        0.000000000000000
        0.000000000000000
        0.000000000000000
        0.000000000000000
        0.000000000000000
        0.000000000000000
        0.000105438814782
        0.000022769572405
        0.000000000000000
        0.000000000000000
        0.000000000000000
        0.000000000000000
        0.000000000000000
        0.000000000000000
        0.000000000000000
        0.000000000000000
        0.000000000000000
        0.000000000000000
        0.000000000000000
        0.000000000000000
        0.000000000000000
        0.000000000000000
        0.000000000000000
        0.000000000000000
        0.000000000000000
        0.000000000000000
        0.000000000000000
        0.000000000000000
        0.000000000000000
        0.000000000000000
        0.000000000000000
        0.000000000000000
        0.000000000000000
       -0.002052583706506
       -0.004099362093584
       -0.004118554532012
       -0.002087187239515
        0.000000000000000
        0.000000000000000
        0.000000000000000
        0.000000000000000
       -0.001820189579289
       -0.007434761422173
       -0.015422251840973
       -0.015669620658795
       -0.007637084746496
       -0.002012454678717
        0.000000000000000
        0.000000000000000
       -0.000246806358870
       -0.003143031922598
       -0.014703326927539
       -0.035388211121900
       -0.035561189021681
       -0.014988984500307
       -0.003791805171967
        0.000000000000000
        0.000000000000000
        0.000168021302700
       -0.001787351605292
       -0.013533939648934
       -0.036718118170390
       -0.032663755573503
       -0.013610436231732
       -0.003496848080841
        0.000000000000000
        0.000000000000000
        0.000648232728674
        0.001218314668104
       -0.001365857141751
       -0.010822663041489
       -0.011495730206944
       -0.005692121338267
       -0.001553183812621
        0.000000000000000
        0.000000000000000
        0.000504568124508
        0.001458118669384
        0.001889678851809
        0.000007731642790
       -0.001408512776042
       -0.000994574363503
        0.000000000000000
        0.000000000000000
        0.000000000000000
        0.000000000000000
        0.000577420238951
        0.000968550289086
        0.000761948987285
        0.000248026063092
        0.000000000000000
        0.000000000000000
        0.000000000000000
        0.000000000000000
        0.000000000000000
        0.000000000000000
        0.000000000000000
        0.000000000000000
        0.000000000000000
        0.000000000000000
        0.000000000000000
        0.000000000000000
        0.000000000000000
        0.000000000000000
        0.000000000000000
        0.000000000000000
       -0.001102022708106
       -0.001080524234348
        0.000000000000000
        0.000000000000000
        0.000000000000000
        0.000000000000000
        0.000000000000000
       -0.000989906784850
       -0.003832434445962
       -0.007506380455007
       -0.007443122678936
       -0.003908077058103
       -0.001130702099239
        0.000000000000000
        0.000000000000000
       -0.000166995254482
       -0.002794967999439
       -0.013793503748819
       -0.034073742934518
       -0.034747698654134
       -0.014715641547487
       -0.003731841736815
        0.000000000000000
        0.000000000000000
        0.000425691805674
       -0.002562864991840
       -0.027748493456496
       -0.099886241738410
       -0.105622028070965
       -0.032738553389180
       -0.006632465805219
       -0.000918210802185
        0.000398377718953
        0.001968935631466
        0.004023608705853
       -0.014429868959181
       -0.097400392269727
       -0.087140546418442
       -0.028113393966415
       -0.005941770410602
       -0.000856010889817
        0.000438201306403
        0.002578604387701
        0.009512611666605
        0.020136895700152
       -0.001729542166301
       -0.015188815828861
       -0.008353358870370
       -0.002400285396291
        0.000000000000000
        0.000000000000000
        0.001600355534718
        0.005550652697644
        0.011506134875280
        0.009947016039674
        0.002859470071501
       -0.000209437620799
       -0.000298078745613
        0.000000000000000
        0.000000000000000
        0.000546381289887
        0.001773004796290
        0.003374992220691
        0.003514306684372
        0.001846938179074
        0.000522288180237
        0.000000000000000
        0.000000000000000
        0.000000000000000
        0.000000000000000
        0.000000000000000
        0.000597263095091
        0.000640709870586
        0.000000000000000
        0.000000000000000
        0.000000000000000
        0.000000000000000
        0.000000000000000
        0.000000000000000
        0.000000000000000
       -0.000588088233561
       -0.001217371271580
       -0.001044911246455
        0.000000000000000
        0.000000000000000
        0.000000000000000
        0.000000000000000
       -0.000016156385172
       -0.000759259927711
       -0.003435277697446
       -0.007064243592819
       -0.006913492175070
       -0.003586046359964
       -0.001055061033285
        0.000000000000000
        0.000000000000000
        0.000418949357224
       -0.000681214307318
       -0.010446621280404
       -0.032346413409744
       -0.030248404671479
       -0.012880714828313
       -0.003350170706765
        0.000000000000000
        0.000437039670493
        0.002274909371356
        0.005796508309418
       -0.007504511021538
       -0.085803096653030
       -0.081963845869211
       -0.027012457219116
       -0.005772036022374
       -0.000839621305990
        0.000816759839725
        0.004735861281534
        0.021657693383058
        0.057440503291052
        0.000017608499857
       -0.057320812864144
       -0.021602081217001
       -0.004711099458447
       -0.000811155827405
        0.000658610014831
        0.004664616041616
        0.021465731674438
        0.067441929002458
        0.085836096837846
        0.022157568256484
       -0.000171564019550
       -0.001131733952667
       -0.000248761550977
        0.000000000000000
        0.002496961639841
        0.009777455416101
        0.024679029102117
        0.032354867876735
        0.016049165931843
        0.003815119644059
        0.000448845481702
        0.000000000000000
        0.000000000000000
        0.000735891611000
        0.002729024819652
        0.005790366824148
        0.007065513549972
        0.004564252869119
        0.001623528872175
        0.000338905805619
        0.000000000000000
        0.000000000000000
        0.000000000000000
        0.000000000000000
        0.000860391696205
        0.001217551360889
        0.000773137584898
        0.000000000000000
        0.000000000000000
        0.000000000000000
        0.000000000000000
        0.000000000000000
        0.000000000000000
       -0.000311661327558
       -0.000531169363336
        0.000000000000000
        0.000000000000000
        0.000000000000000
        0.000000000000000
        0.000000000000000
        0.000127854236192
        0.000088547400126
       -0.000970228919701
       -0.002845194245352
       -0.003012665595123
       -0.001582648361915
        0.000000000000000
        0.000000000000000
        0.000000000000000
        0.000964421306710
        0.002588894588314
        0.002222643985319
       -0.006634732889136
       -0.009287199908428
       -0.004988364316974
       -0.001418452741996
        0.000000000000000
        0.000496040556011
        0.003065283757635
        0.012287511040386
        0.030333859232812
        0.010372337428935
       -0.010078551133040
       -0.007054528347681
       -0.002164932306779
        0.000000000000000
        0.000697271966371
        0.004970589781506
        0.023238631278003
        0.074367286940101
        0.097433392454542
        0.027334268805714
        0.000929372727749
       -0.000961999564440
       -0.000232371967150
        0.000000000000000
        0.004162408211012
        0.018020821991572
        0.053076001537318
        0.091288358079483
        0.055259851355782
        0.011000563679977
        0.001017901493901
       -0.000009831800583
        0.000000000000000
        0.001891994367258
        0.008011259555072
        0.020238137361446
        0.030773157914301
        0.021049456732765
        0.006603112843352
        0.001179941519114
        0.000000000000000
        0.000000000000000
        0.000000000000000
        0.002053918967950
        0.005001439311099
        0.006839232469094
        0.005043970269189
        0.002053341869956
        0.000459823787318
        0.000000000000000
        0.000000000000000
        0.000000000000000
        0.000000000000000
        0.000000000000000
        0.000992677533329
        0.000795446854833
        0.000000000000000
        0.000000000000000
        0.000000000000000
        0.000000000000000
        0.000000000000000
        0.000000000000000
        0.000000000000000
        0.000000000000000
        0.000000000000000
        0.000000000000000
        0.000000000000000
        0.000000000000000
        0.000000000000000
        0.000000000000000
        0.000315857340053
        0.000296185601146
       -0.000250427310028
       -0.000521890908465
        0.000000000000000
        0.000000000000000
        0.000000000000000
        0.000000000000000
        0.000685222482256
        0.002196644986412
        0.003533405222656
        0.001843204722594
       -0.000356862240293
       -0.000660076122169
        0.000000000000000
        0.000000000000000
        0.000000000000000
        0.001916544112754
        0.006921232617855
        0.015094636002351
        0.014134946192026
        0.005068000370018
        0.000494319400495
       -0.000163347674988
        0.000000000000000
        0.000000000000000
        0.002747889694366
        0.010883592714075
        0.027766347470647
        0.036726572637381
        0.018464516833867
        0.004544841047478
        0.000595522855779
        0.000000000000000
        0.000000000000000
        0.001971805471647
        0.008359323478231
        0.021147960540166
        0.032087626101682
        0.021862947100312
        0.006876455796171
        0.001239904954266
        0.000000000000000
        0.000000000000000
        0.000000000000000
        0.003480483700906
        0.009205411185093
        0.013575380656626
        0.010258711407748
        0.003995124532847
        0.000828534931502
        0.000000000000000
        0.000000000000000
        0.000000000000000
        0.000000000000000
        0.002327204754867
        0.003588737162337
        0.002856686243722
        0.001196917786043
        0.000000000000000
        0.000000000000000
        0.000000000000000
        0.000000000000000
        0.000000000000000
        0.000000000000000
        0.000000000000000
        0.000000000000000
        0.000000000000000
        0.000000000000000
        0.000000000000000
        0.000000000000000
        0.000000000000000
        0.000000000000000
        0.000000000000000
        0.000000000000000
        0.000000000000000
        0.000000000000000
        0.000000000000000
        0.000000000000000
        0.000000000000000
        0.000000000000000
        0.000000000000000
        0.000241465251768
        0.000167917527137
        0.000000000000000
        0.000000000000000
        0.000000000000000
        0.000000000000000
        0.000000000000000
        0.000000000000000
        0.000787799037198
        0.001415246893571
        0.001254605233088
        0.000529089197896
        0.000000000000000
        0.000000000000000
        0.000000000000000
        0.000000000000000
        0.000649614176301
        0.002159831560544
        0.004187274745101
        0.004451527982603
        0.002426972007191
        0.000723594423535
        0.000000000000000
        0.000000000000000
        0.000000000000000
        0.000827919282037
        0.003075161843123
        0.006557988408412
        0.008020216157450
        0.005195724896009
        0.001865429006707
        0.000392072925398
        0.000000000000000
        0.000000000000000
        0.000000000000000
        0.002200320771977
        0.005346248497159
        0.007301015491887
        0.005369856329706
        0.002184004868284
        0.000492683384335
        0.000000000000000
        0.000000000000000
        0.000000000000000
        0.000000000000000
        0.002393803412242
        0.003683984769986
        0.002927391251979
        0.001226693154820
        0.000000000000000
        0.000000000000000
        0.000000000000000
        0.000000000000000
        0.000000000000000
        0.000000000000000
        0.001050852323274
        0.000900035274828
        0.000000000000000
        0.000000000000000
        0.000000000000000
        0.000000000000000
        0.000000000000000
        0.000000000000000
        0.000000000000000
        0.000000000000000
        0.000000000000000
        0.000000000000000
        0.000000000000000
        0.000000000000000
        0.000000000000000
        0.000000000000000
        0.000000000000000
        0.000000000000000
        0.000000000000000
        0.000000000000000
        0.000000000000000
        0.000000000000000
        0.000000000000000
        0.000000000000000
        0.000000000000000
        0.000000000000000
        0.000000000000000
        0.000000000000000
        0.000000000000000
        0.000000000000000
        0.000000000000000
        0.000000000000000
        0.000000000000000
        0.000000000000000
        0.000000000000000
        0.000000000000000
        0.000000000000000
        0.000000000000000
        0.000000000000000
        0.000000000000000
        0.000000000000000
        0.000000000000000
        0.000000000000000
        0.000000000000000
        0.000720280062770
        0.000778597684432
        0.000000000000000
        0.000000000000000
        0.000000000000000
        0.000000000000000
        0.000000000000000
        0.000000000000000
        0.000000000000000
        0.000981887895018
        0.001382074068666
        0.000872376732859
        0.000000000000000
        0.000000000000000
        0.000000000000000
        0.000000000000000
        0.000000000000000
        0.000000000000000
        0.000000000000000
        0.001075524074629
        0.000860671509532
        0.000000000000000
        0.000000000000000
        0.000000000000000
        0.000000000000000
        0.000000000000000
        0.000000000000000
        0.000000000000000
        0.000000000000000
        0.000000000000000
        0.000000000000000
        0.000000000000000
        0.000000000000000
        0.000000000000000
        0.000000000000000
        0.000000000000000
        0.000000000000000
        0.000000000000000
        0.000000000000000
        0.000000000000000
        0.000000000000000
        0.000000000000000
        0.000000000000000
        0.000000000000000
        0.000000000000000
        0.000000000000000
        0.000000000000000
        0.000000000000000
        0.000000000000000
        0.000000000000000
        0.000000000000000
END_DATAGRID_3D
END_BLOCK_DATAGRID_3D
