ATOMS
         C    7.558905    7.558905    7.558905
         H    8.755769    8.755769    8.755769
         H    6.362040    6.362040    8.755769
         H    8.755769    6.362040    6.362040
         H    6.362040    8.755769    6.362040
BEGIN_BLOCK_DATAGRID_3D
units: coords = b, function = sqrt(b^-3)
BEGIN_DATAGRID_3D_function
      9      9      9
0.0 0.0 0.0
   15.117809    0.000000    0.000000
    0.000000   15.117809    0.000000
    0.000000    0.000000   15.117809
        0.000000000000000
        0.000000000000000
        0.000000000000000
        0.000000000000000
        0.000000000000000
        0.000000000000000
        0.000000000000000
        0.000000000000000
        0.000000000000000
        0.000000000000000
        0.000000000000000
        0.000000000000000
        0.000000000000000
        0.000000000000000
        0.000000000000000
        0.000000000000000
        0.000000000000000
        0.000000000000000
        0.000000000000000
        0.000000000000000
        0.000000000000000
        0.000000000000000
        0.000000000000000
        0.000000000000000
        0.000000000000000
        0.000000000000000
        0.000000000000000
        0.000000000000000
        0.000000000000000
        0.000000000000000
        0.000000000000000
       -0.000047300200638
        0.000018011303980
        0.000000000000000
        0.000000000000000
        0.000000000000000
        0.000000000000000
        0.000000000000000
        0.000000000000000
       -0.000103681611680
       -0.000043793414096
        0.000046281147994
        0.000000000000000
        0.000000000000000
        0.000000000000000
        0.000000000000000
        0.000000000000000
        0.000000000000000
       -0.000067333057970
       -0.000011499995787
        0.000000000000000
        0.000000000000000
        0.000000000000000
        0.000000000000000
        0.000000000000000
        0.000000000000000
        0.000000000000000
        0.000000000000000
        0.000000000000000
        0.000000000000000
        0.000000000000000
        0.000000000000000
        0.000000000000000
        0.000000000000000
        0.000000000000000
        0.000000000000000
        0.000000000000000
        0.000000000000000
        0.000000000000000
        0.000000000000000
        0.000000000000000
        0.000000000000000
        0.000000000000000
        0.000000000000000
        0.000000000000000
        0.000000000000000
        0.000000000000000
        0.000000000000000
        0.000000000000000
        0.000000000000000
        0.000000000000000
        0.000000000000000
        0.000000000000000
        0.000000000000000
        0.000000000000000
        0.000000000000000
        0.000000000000000
        0.000000000000000
        0.000000000000000
        0.000000000000000
        0.000000000000000
        0.000000000000000
        0.000000000000000
        0.000000000000000
       -0.000102119391055
       -0.000035181024385
        0.000000000000000
        0.000000000000000
        0.000000000000000
        0.000000000000000
        0.000000000000000
        0.000000000000000
       -0.000366479044718
       -0.000308845878355
       -0.000004644893176
        0.000104040591831
        0.000000000000000
        0.000000000000000
        0.000000000000000
        0.000000000000000
       -0.000479250815474
       -0.000784515921911
       -0.000441655676433
        0.000211566848804
        0.000342510775941
        0.000156172100703
        0.000000000000000
        0.000000000000000
       -0.000231975119917
       -0.000668525530258
       -0.000887377213340
       -0.000254347300867
        0.000527997699448
        0.000534597337927
        0.000205677382138
        0.000000000000000
        0.000000000000000
       -0.000182796430542
       -0.000465023528542
       -0.000507897842035
        0.000068966495954
        0.000550689708159
        0.000403113427575
        0.000000000000000
        0.000000000000000
        0.000000000000000
        0.000000000000000
       -0.000162938613427
       -0.000131900226870
        0.000152274561504
        0.000279809325876
        0.000000000000000
        0.000000000000000
        0.000000000000000
        0.000000000000000
        0.000000000000000
        0.000000000000000
       -0.000001339663488
        0.000063421342092
        0.000000000000000
        0.000000000000000
        0.000000000000000
        0.000000000000000
        0.000000000000000
        0.000000000000000
        0.000000000000000
        0.000000000000000
        0.000000000000000
        0.000000000000000
        0.000000000000000
        0.000000000000000
        0.000000000000000
        0.000000000000000
        0.000000000000000
        0.000000000000000
        0.000000000000000
        0.000000000000000
        0.000000000000000
        0.000000000000000
        0.000000000000000
        0.000000000000000
        0.000000000000000
        0.000000000000000
        0.000000000000000
       -0.000486791603147
       -0.000482635365868
       -0.000134982620858
        0.000048605912891
        0.000000000000000
        0.000000000000000
        0.000000000000000
        0.000000000000000
       -0.000975619223279
       -0.001861986330774
       -0.001494542287500
        0.000023427194541
        0.000458796039177
        0.000222897983164
        0.000000000000000
        0.000000000000000
       -0.000688878067306
       -0.002351652525413
       -0.004064423102268
       -0.002541057142874
        0.001489207459506
        0.001605018016463
        0.000625392073144
        0.000000000000000
        0.000000000000000
       -0.000968724395665
       -0.003078752360276
       -0.005127210589165
       -0.001165518638255
        0.003743421663296
        0.002698587640015
        0.000916038844785
        0.000000000000000
        0.000000000000000
       -0.000688356423365
       -0.001975074400708
       -0.002623679910719
        0.001074108418431
        0.003302093417409
        0.002156075851306
        0.000669946982061
        0.000000000000000
        0.000000000000000
       -0.000257357417812
       -0.000634634176483
       -0.000456762688862
        0.001005220069343
        0.001614205370354
        0.000921807901795
        0.000000000000000
        0.000000000000000
        0.000000000000000
        0.000000000000000
       -0.000093976707146
        0.000033290491945
        0.000376747880509
        0.000438117690317
        0.000000000000000
        0.000000000000000
        0.000000000000000
        0.000000000000000
        0.000000000000000
        0.000000000000000
        0.000000000000000
        0.000000000000000
        0.000000000000000
        0.000000000000000
        0.000000000000000
        0.000000000000000
        0.000000000000000
        0.000000000000000
        0.000000000000000
        0.000000000000000
       -0.000198538712421
       -0.000102181977198
        0.000000000000000
        0.000000000000000
        0.000000000000000
        0.000000000000000
        0.000000000000000
       -0.000740984418434
       -0.001407256755147
       -0.001284264251683
       -0.000389152028337
        0.000099212217072
        0.000094370706691
        0.000000000000000
        0.000000000000000
       -0.000830073897271
       -0.002973814705443
       -0.005707718278560
       -0.004939567506405
       -0.000010241972546
        0.001096066505704
        0.000512615992988
        0.000000000000000
        0.000000000000000
       -0.001878728176437
       -0.006980334255517
       -0.015034634924857
       -0.011148103601938
        0.006277134133732
        0.004691577957864
        0.001504998242835
        0.000278801072935
       -0.000365030695862
       -0.002356534606967
       -0.009351062035031
       -0.021247626442502
       -0.003098019241350
        0.018382078623895
        0.008926626631287
        0.002363710536785
        0.000378011212005
       -0.000273542505103
       -0.001547806396717
       -0.005244826442343
       -0.008858626060949
        0.007914765700883
        0.013937626506529
        0.006894394734885
        0.001922849471751
        0.000000000000000
        0.000000000000000
       -0.000550690492497
       -0.001342082615627
       -0.000723397534099
        0.004171713426295
        0.005464823991352
        0.002990510103803
        0.000862871413460
        0.000000000000000
        0.000000000000000
       -0.000107357225594
       -0.000162404417772
        0.000253454159974
        0.001157213771382
        0.001370272543736
        0.000754057776403
        0.000000000000000
        0.000000000000000
        0.000000000000000
        0.000000000000000
        0.000000000000000
        0.000085051401532
        0.000183751504862
        0.000000000000000
        0.000000000000000
        0.000000000000000
        0.000000000000000
        0.000000000000000
        0.000000000000000
        0.000000000000000
       -0.000323176336943
       -0.000343988878768
       -0.000136593230929
        0.000000000000000
        0.000000000000000
        0.000000000000000
        0.000000000000000
       -0.000394775008140
       -0.001287229640698
       -0.002273727731251
       -0.001996363655270
       -0.000636024402450
        0.000084170602747
        0.000105694755392
        0.000000000000000
        0.000000000000000
       -0.001412606924003
       -0.005056036426768
       -0.010703630613369
       -0.009142471866751
       -0.000708379506778
        0.001339874792349
        0.000640175765665
        0.000000000000000
       -0.000432768302639
       -0.002897593122841
       -0.012521016678768
       -0.033759919702373
       -0.024259513175297
        0.008843825294682
        0.006876988913200
        0.002044405187667
        0.000346933858996
       -0.000566898198531
       -0.003318913118662
       -0.015355320331474
       -0.041132184325356
       -0.000064219063387
        0.041868104572454
        0.015932439593076
        0.003513671188419
        0.000610517536074
       -0.000327727836965
       -0.001966868897454
       -0.006802289366150
       -0.009156335492373
        0.024230113758215
        0.034843671306284
        0.013178041755881
        0.003103394180119
        0.000472212361523
        0.000000000000000
       -0.000631986064939
       -0.001389042024316
        0.000514457024015
        0.009136202333284
        0.011082175029002
        0.005350570703097
        0.001522591936804
        0.000000000000000
        0.000000000000000
       -0.000109917390713
       -0.000108309281406
        0.000587826013222
        0.001995398893670
        0.002352488300667
        0.001364299798137
        0.000428129513654
        0.000000000000000
        0.000000000000000
        0.000000000000000
        0.000000000000000
        0.000128152544404
        0.000343901986944
        0.000335069919044
        0.000000000000000
        0.000000000000000
        0.000000000000000
        0.000000000000000
        0.000000000000000
        0.000000000000000
       -0.000289583517229
       -0.000262991539812
        0.000000000000000
        0.000000000000000
        0.000000000000000
        0.000000000000000
        0.000000000000000
       -0.000365425684190
       -0.001156443933267
       -0.001974910864307
       -0.001641155299167
       -0.000518503503473
        0.000028344002478
        0.000000000000000
        0.000000000000000
        0.000000000000000
       -0.001247651006786
       -0.004425133436359
       -0.009105004402456
       -0.006567330225499
       -0.000768654137436
        0.000845654357660
        0.000416596236854
        0.000000000000000
       -0.000374905338954
       -0.002408178974418
       -0.010207526253532
       -0.027277665957792
       -0.014165123405078
        0.004520802626603
        0.004475814571838
        0.001480273631142
        0.000000000000000
       -0.000395465443742
       -0.002507927413329
       -0.009972244009887
       -0.021668628752244
        0.003068619824267
        0.025305417977072
        0.011128404037794
        0.002784088831000
        0.000441135008514
        0.000000000000000
       -0.001338359188212
       -0.003973158910554
       -0.003099275635353
        0.017366922194210
        0.030513297638863
        0.011345073256565
        0.002681765143523
        0.000419682431538
        0.000000000000000
       -0.000379575005925
       -0.000721989516527
        0.001094063102768
        0.007326655200276
        0.010018232601064
        0.004891013058137
        0.001389716148639
        0.000000000000000
        0.000000000000000
        0.000000000000000
       -0.000013062149565
        0.000570452224997
        0.001766762735104
        0.002142087280336
        0.001269730575671
        0.000405708733830
        0.000000000000000
        0.000000000000000
        0.000000000000000
        0.000000000000000
        0.000000000000000
        0.000277606165695
        0.000310389972586
        0.000000000000000
        0.000000000000000
        0.000000000000000
        0.000000000000000
        0.000000000000000
        0.000000000000000
        0.000000000000000
        0.000000000000000
        0.000000000000000
        0.000000000000000
        0.000000000000000
        0.000000000000000
        0.000000000000000
        0.000000000000000
       -0.000539054263080
       -0.000938630252462
       -0.000746676024178
       -0.000238156569711
        0.000000000000000
        0.000000000000000
        0.000000000000000
        0.000000000000000
       -0.000576959563775
       -0.001954714272663
       -0.003425431545083
       -0.002343897679439
       -0.000324309746560
        0.000299087301170
        0.000000000000000
        0.000000000000000
        0.000000000000000
       -0.001109985075918
       -0.003792141651277
       -0.007204722025836
       -0.003469725217635
        0.001394076436507
        0.001680088610157
        0.000609520668253
        0.000000000000000
        0.000000000000000
       -0.001075868593276
       -0.003366326090808
       -0.005061963000189
        0.001159249104788
        0.006630373858927
        0.003991857855431
        0.001246728857684
        0.000000000000000
        0.000000000000000
       -0.000520770835890
       -0.001344151696557
       -0.000549232073523
        0.004928144836746
        0.008518783169012
        0.004382061547377
        0.001276940068483
        0.000000000000000
        0.000000000000000
        0.000000000000000
       -0.000201016266075
        0.000594485313824
        0.002830274963177
        0.003929981144743
        0.002229194221192
        0.000659589276548
        0.000000000000000
        0.000000000000000
        0.000000000000000
        0.000000000000000
        0.000290064600353
        0.000851966365425
        0.001056988446092
        0.000608310788790
        0.000000000000000
        0.000000000000000
        0.000000000000000
        0.000000000000000
        0.000000000000000
        0.000000000000000
        0.000000000000000
        0.000000000000000
        0.000000000000000
        0.000000000000000
        0.000000000000000
        0.000000000000000
        0.000000000000000
        0.000000000000000
        0.000000000000000
        0.000000000000000
        0.000000000000000
        0.000000000000000
        0.000000000000000
        0.000000000000000
        0.000000000000000
        0.000000000000000
        0.000000000000000
       -0.000247098010366
       -0.000201316142017
        0.000000000000000
        0.000000000000000
        0.000000000000000
        0.000000000000000
        0.000000000000000
        0.000000000000000
       -0.000470092356799
       -0.000773439533647
       -0.000522202705173
       -0.000079848205271
        0.000000000000000
        0.000000000000000
        0.000000000000000
        0.000000000000000
       -0.000289986479242
       -0.000853824822496
       -0.001213558862298
       -0.000552908023740
        0.000301079332104
        0.000379288351306
        0.000000000000000
        0.000000000000000
        0.000000000000000
       -0.000272717278936
       -0.000727013391846
       -0.000798524504690
        0.000253382539268
        0.001188466198769
        0.000913873062957
        0.000328146886908
        0.000000000000000
        0.000000000000000
        0.000000000000000
       -0.000274795752525
       -0.000052288608239
        0.000924154159854
        0.001541368403194
        0.001026432016802
        0.000343907339819
        0.000000000000000
        0.000000000000000
        0.000000000000000
        0.000000000000000
        0.000169752041923
        0.000678176877912
        0.000926650718410
        0.000552876109851
        0.000000000000000
        0.000000000000000
        0.000000000000000
        0.000000000000000
        0.000000000000000
        0.000000000000000
        0.000239880675590
        0.000288093409411
        0.000000000000000
        0.000000000000000
        0.000000000000000
        0.000000000000000
        0.000000000000000
        0.000000000000000
        0.000000000000000
        0.000000000000000
        0.000000000000000
        0.000000000000000
        0.000000000000000
        0.000000000000000
        0.000000000000000
        0.000000000000000
        0.000000000000000
        0.000000000000000
        0.000000000000000
        0.000000000000000
        0.000000000000000
        0.000000000000000
        0.000000000000000
        0.000000000000000
        0.000000000000000
        0.000000000000000
        0.000000000000000
        0.000000000000000
        0.000000000000000
        0.000000000000000
        0.000000000000000
        0.000000000000000
        0.000000000000000
        0.000000000000000
        0.000000000000000
        0.000000000000000
        0.000000000000000
        0.000000000000000
        0.000000000000000
        0.000000000000000
        0.000000000000000
        0.000000000000000
        0.000000000000000
        0.000000000000000
       -0.000137199057728
       -0.000067740039163
        0.000000000000000
        0.000000000000000
        0.000000000000000
        0.000000000000000
        0.000000000000000
        0.000000000000000
        0.000000000000000
       -0.000091342180859
        0.000043706522272
        0.000152195540121
        0.000000000000000
        0.000000000000000
        0.000000000000000
        0.000000000000000
        0.000000000000000
        0.000000000000000
        0.000000000000000
        0.000126367653912
        0.000190196691409
        0.000000000000000
        0.000000000000000
        0.000000000000000
        0.000000000000000
        0.000000000000000
        0.000000000000000
        0.000000000000000
        0.000000000000000
        0.000000000000000
        0.000000000000000
        0.000000000000000
        0.000000000000000
        0.000000000000000
        0.000000000000000
        0.000000000000000
        0.000000000000000
        0.000000000000000
        0.000000000000000
        0.000000000000000
        0.000000000000000
        0.000000000000000
        0.000000000000000
        0.000000000000000
        0.000000000000000
        0.000000000000000
        0.000000000000000
        0.000000000000000
        0.000000000000000
        0.000000000000000
        0.000000000000000
END_DATAGRID_3D
END_BLOCK_DATAGRID_3D
