ATOMS
         C    7.558905    7.558905    7.558905
         H    8.755769    8.755769    8.755769
         H    6.362040    6.362040    8.755769
         H    8.755769    6.362040    6.362040
         H    6.362040    8.755769    6.362040
BEGIN_BLOCK_DATAGRID_3D
units: coords = b, function = 1/hbar/H*b^-2
BEGIN_DATAGRID_3D_function
      9      9      9
0.0 0.0 0.0
   15.117809    0.000000    0.000000
    0.000000   15.117809    0.000000
    0.000000    0.000000   15.117809
        0.000000000000000
        0.000000000000000
        0.000000000000000
        0.000000000000000
        0.000000000000000
        0.000000000000000
        0.000000000000000
        0.000000000000000
        0.000000000000000
        0.000000000000000
        0.000000000000000
        0.000000000000000
        0.000000000000000
        0.000000000000000
        0.000000000000000
        0.000000000000000
        0.000000000000000
        0.000000000000000
        0.000000000000000
        0.000000000000000
        0.000000000000000
        0.000000000000000
        0.000000000000000
        0.000000000000000
        0.000000000000000
        0.000000000000000
        0.000000000000000
        0.000000000000000
        0.000000000000000
        0.000000000000000
        0.000000000000000
       -0.000000000007218
        0.000000000000621
        0.000000000000000
        0.000000000000000
        0.000000000000000
        0.000000000000000
        0.000000000000000
        0.000000000000000
        0.000000000000759
       -0.000000000022676
        0.000000000000621
        0.000000000000000
        0.000000000000000
        0.000000000000000
        0.000000000000000
        0.000000000000000
        0.000000000000000
        0.000000000000759
       -0.000000000008105
        0.000000000000000
        0.000000000000000
        0.000000000000000
        0.000000000000000
        0.000000000000000
        0.000000000000000
        0.000000000000000
        0.000000000000000
        0.000000000000000
        0.000000000000000
        0.000000000000000
        0.000000000000000
        0.000000000000000
        0.000000000000000
        0.000000000000000
        0.000000000000000
        0.000000000000000
        0.000000000000000
        0.000000000000000
        0.000000000000000
        0.000000000000000
        0.000000000000000
        0.000000000000000
        0.000000000000000
        0.000000000000000
        0.000000000000000
        0.000000000000000
        0.000000000000000
        0.000000000000000
        0.000000000000000
        0.000000000000000
        0.000000000000000
        0.000000000000000
        0.000000000000000
        0.000000000000000
        0.000000000000000
        0.000000000000000
        0.000000000000000
        0.000000000000000
        0.000000000000000
        0.000000000000000
        0.000000000000000
        0.000000000000000
        0.000000000000000
       -0.000000000014238
        0.000000000014614
        0.000000000000000
        0.000000000000000
        0.000000000000000
        0.000000000000000
        0.000000000000000
        0.000000000000000
       -0.000000000027852
       -0.000000000012503
        0.000000000011384
        0.000000000015059
        0.000000000000000
        0.000000000000000
        0.000000000000000
        0.000000000000000
       -0.000000000017630
       -0.000000000034852
        0.000000000021653
       -0.000000000021735
        0.000000000022330
       -0.000000000000138
        0.000000000000000
        0.000000000000000
       -0.000000000000029
       -0.000000000027274
        0.000000000012659
       -0.000000000016760
        0.000000000020485
       -0.000000000026429
       -0.000000000000138
        0.000000000000000
        0.000000000000000
       -0.000000000000029
        0.000000000021718
       -0.000000000027466
        0.000000000018123
       -0.000000000035333
       -0.000000000015575
        0.000000000000000
        0.000000000000000
        0.000000000000000
        0.000000000000000
        0.000000000013223
        0.000000000014116
       -0.000000000017680
       -0.000000000025204
        0.000000000000000
        0.000000000000000
        0.000000000000000
        0.000000000000000
        0.000000000000000
        0.000000000000000
        0.000000000012789
       -0.000000000015672
        0.000000000000000
        0.000000000000000
        0.000000000000000
        0.000000000000000
        0.000000000000000
        0.000000000000000
        0.000000000000000
        0.000000000000000
        0.000000000000000
        0.000000000000000
        0.000000000000000
        0.000000000000000
        0.000000000000000
        0.000000000000000
        0.000000000000000
        0.000000000000000
        0.000000000000000
        0.000000000000000
        0.000000000000000
        0.000000000000000
        0.000000000000000
        0.000000000000000
        0.000000000000000
        0.000000000000000
        0.000000000000000
       -0.000000000039611
        0.000000000011966
       -0.000000000008875
        0.000000000025388
        0.000000000000000
        0.000000000000000
        0.000000000000000
        0.000000000000000
       -0.000000000053906
        0.000000000009700
        0.000000000067785
       -0.000000000128007
       -0.000000000021900
        0.000000000006584
        0.000000000000000
        0.000000000000000
       -0.000000000007111
       -0.000000000028763
        0.000000000321144
       -0.000000000188946
       -0.000000000543051
       -0.000000000091293
        0.000000000006727
        0.000000000000000
        0.000000000000000
       -0.000000000011941
        0.000000000069168
       -0.000000000205721
       -0.000000000535813
       -0.000000000209027
        0.000000000081936
       -0.000000000011168
        0.000000000000000
        0.000000000000000
        0.000000000006066
       -0.000000000104734
       -0.000000000591115
       -0.000000000218463
        0.000000000317060
       -0.000000000028135
       -0.000000000005092
        0.000000000000000
        0.000000000000000
        0.000000000004708
       -0.000000000014226
       -0.000000000164665
        0.000000000077770
        0.000000000006374
       -0.000000000044847
        0.000000000000000
        0.000000000000000
        0.000000000000000
        0.000000000000000
        0.000000000021717
       -0.000000000004910
        0.000000000006049
       -0.000000000036480
        0.000000000000000
        0.000000000000000
        0.000000000000000
        0.000000000000000
        0.000000000000000
        0.000000000000000
        0.000000000000000
        0.000000000000000
        0.000000000000000
        0.000000000000000
        0.000000000000000
        0.000000000000000
        0.000000000000000
        0.000000000000000
        0.000000000000000
        0.000000000000000
       -0.000000000018944
        0.000000000012462
        0.000000000000000
        0.000000000000000
        0.000000000000000
        0.000000000000000
        0.000000000000000
       -0.000000000023484
       -0.000000000069332
       -0.000000000195590
        0.000000000110258
        0.000000000102906
       -0.000000000007471
        0.000000000000000
        0.000000000000000
        0.000000000005742
       -0.000000000127425
        0.000000001632114
        0.000000003052330
       -0.000000001928936
       -0.000000001888255
        0.000000000126338
        0.000000000000000
        0.000000000000000
       -0.000000000113659
        0.000000001448874
        0.000000005236709
       -0.000000009013341
       -0.000000017022661
       -0.000000001013148
        0.000000000081891
        0.000000000000967
        0.000000000001105
       -0.000000000243573
        0.000000003224737
       -0.000000008786891
       -0.000000021387857
       -0.000000009529540
        0.000000003227750
       -0.000000000236124
        0.000000000000967
        0.000000000001105
        0.000000000075930
       -0.000000001062510
       -0.000000016337856
       -0.000000008027347
        0.000000005399345
        0.000000001446204
       -0.000000000114444
        0.000000000000000
        0.000000000000000
        0.000000000128756
       -0.000000001922399
       -0.000000002189772
        0.000000003109410
        0.000000001650796
       -0.000000000131094
        0.000000000008350
        0.000000000000000
        0.000000000000000
       -0.000000000009296
        0.000000000106808
        0.000000000105485
       -0.000000000198643
       -0.000000000074128
       -0.000000000020356
        0.000000000000000
        0.000000000000000
        0.000000000000000
        0.000000000000000
        0.000000000000000
        0.000000000014305
       -0.000000000018817
        0.000000000000000
        0.000000000000000
        0.000000000000000
        0.000000000000000
        0.000000000000000
        0.000000000000000
        0.000000000000000
       -0.000000000007070
       -0.000000000002569
        0.000000000006942
        0.000000000000000
        0.000000000000000
        0.000000000000000
        0.000000000000000
        0.000000000004028
       -0.000000000028081
       -0.000000000379238
        0.000000000026501
        0.000000000382427
        0.000000000033977
       -0.000000000002585
        0.000000000000000
        0.000000000000000
       -0.000000000047316
        0.000000000667693
        0.000000007272375
       -0.000000000501011
       -0.000000007334603
       -0.000000000678027
        0.000000000052635
        0.000000000000000
        0.000000000002348
       -0.000000000372477
        0.000000006235242
        0.000000031045482
       -0.000000002177588
       -0.000000032064252
       -0.000000006214168
        0.000000000377106
       -0.000000000001466
        0.000000000000000
        0.000000000000000
       -0.000000000000000
        0.000000000000000
        0.000000000000000
       -0.000000000000000
        0.000000000000000
        0.000000000000000
       -0.000000000000000
       -0.000000000002348
        0.000000000372477
       -0.000000006235242
       -0.000000031045482
        0.000000002177588
        0.000000032064252
        0.000000006214168
       -0.000000000377106
        0.000000000001466
        0.000000000000000
        0.000000000047316
       -0.000000000667693
       -0.000000007272375
        0.000000000501011
        0.000000007334603
        0.000000000678027
       -0.000000000052635
        0.000000000000000
        0.000000000000000
       -0.000000000004028
        0.000000000028081
        0.000000000379238
       -0.000000000026501
       -0.000000000382427
       -0.000000000033977
        0.000000000002585
        0.000000000000000
        0.000000000000000
        0.000000000000000
        0.000000000000000
        0.000000000007070
        0.000000000002569
       -0.000000000006942
        0.000000000000000
        0.000000000000000
        0.000000000000000
        0.000000000000000
        0.000000000000000
        0.000000000000000
       -0.000000000014305
        0.000000000018817
        0.000000000000000
        0.000000000000000
        0.000000000000000
        0.000000000000000
        0.000000000000000
        0.000000000009296
       -0.000000000106808
       -0.000000000105485
        0.000000000198643
        0.000000000074128
        0.000000000020356
        0.000000000000000
        0.000000000000000
        0.000000000000000
       -0.000000000128756
        0.000000001922399
        0.000000002189772
       -0.000000003109410
       -0.000000001650796
        0.000000000131094
       -0.000000000008350
        0.000000000000000
       -0.000000000001105
       -0.000000000075930
        0.000000001062510
        0.000000016337856
        0.000000008027347
       -0.000000005399345
       -0.000000001446204
        0.000000000114444
        0.000000000000000
       -0.000000000001105
        0.000000000243573
       -0.000000003224737
        0.000000008786891
        0.000000021387857
        0.000000009529540
       -0.000000003227750
        0.000000000236124
       -0.000000000000967
        0.000000000000000
        0.000000000113659
       -0.000000001448874
       -0.000000005236709
        0.000000009013341
        0.000000017022661
        0.000000001013148
       -0.000000000081891
       -0.000000000000967
        0.000000000000000
       -0.000000000005742
        0.000000000127425
       -0.000000001632114
       -0.000000003052330
        0.000000001928936
        0.000000001888255
       -0.000000000126338
        0.000000000000000
        0.000000000000000
        0.000000000000000
        0.000000000023484
        0.000000000069332
        0.000000000195590
       -0.000000000110258
       -0.000000000102906
        0.000000000007471
        0.000000000000000
        0.000000000000000
        0.000000000000000
        0.000000000000000
        0.000000000000000
        0.000000000018944
       -0.000000000012462
        0.000000000000000
        0.000000000000000
        0.000000000000000
        0.000000000000000
        0.000000000000000
        0.000000000000000
        0.000000000000000
        0.000000000000000
        0.000000000000000
        0.000000000000000
        0.000000000000000
        0.000000000000000
        0.000000000000000
        0.000000000000000
       -0.000000000021717
        0.000000000004910
       -0.000000000006049
        0.000000000036480
        0.000000000000000
        0.000000000000000
        0.000000000000000
        0.000000000000000
       -0.000000000004708
        0.000000000014226
        0.000000000164665
       -0.000000000077770
       -0.000000000006374
        0.000000000044847
        0.000000000000000
        0.000000000000000
        0.000000000000000
       -0.000000000006066
        0.000000000104734
        0.000000000591115
        0.000000000218463
       -0.000000000317060
        0.000000000028135
        0.000000000005092
        0.000000000000000
        0.000000000000000
        0.000000000011941
       -0.000000000069168
        0.000000000205721
        0.000000000535813
        0.000000000209027
       -0.000000000081936
        0.000000000011168
        0.000000000000000
        0.000000000000000
        0.000000000007111
        0.000000000028763
       -0.000000000321144
        0.000000000188946
        0.000000000543051
        0.000000000091293
       -0.000000000006727
        0.000000000000000
        0.000000000000000
        0.000000000000000
        0.000000000053906
       -0.000000000009700
       -0.000000000067785
        0.000000000128007
        0.000000000021900
       -0.000000000006584
        0.000000000000000
        0.000000000000000
        0.000000000000000
        0.000000000000000
        0.000000000039611
       -0.000000000011966
        0.000000000008875
       -0.000000000025388
        0.000000000000000
        0.000000000000000
        0.000000000000000
        0.000000000000000
        0.000000000000000
        0.000000000000000
        0.000000000000000
        0.000000000000000
        0.000000000000000
        0.000000000000000
        0.000000000000000
        0.000000000000000
        0.000000000000000
        0.000000000000000
        0.000000000000000
        0.000000000000000
        0.000000000000000
        0.000000000000000
        0.000000000000000
        0.000000000000000
        0.000000000000000
        0.000000000000000
        0.000000000000000
       -0.000000000012789
        0.000000000015672
        0.000000000000000
        0.000000000000000
        0.000000000000000
        0.000000000000000
        0.000000000000000
        0.000000000000000
       -0.000000000013223
       -0.000000000014116
        0.000000000017680
        0.000000000025204
        0.000000000000000
        0.000000000000000
        0.000000000000000
        0.000000000000000
        0.000000000000029
       -0.000000000021718
        0.000000000027466
       -0.000000000018123
        0.000000000035333
        0.000000000015575
        0.000000000000000
        0.000000000000000
        0.000000000000000
        0.000000000000029
        0.000000000027274
       -0.000000000012659
        0.000000000016760
       -0.000000000020485
        0.000000000026429
        0.000000000000138
        0.000000000000000
        0.000000000000000
        0.000000000000000
        0.000000000017630
        0.000000000034852
       -0.000000000021653
        0.000000000021735
       -0.000000000022330
        0.000000000000138
        0.000000000000000
        0.000000000000000
        0.000000000000000
        0.000000000000000
        0.000000000027852
        0.000000000012503
       -0.000000000011384
       -0.000000000015059
        0.000000000000000
        0.000000000000000
        0.000000000000000
        0.000000000000000
        0.000000000000000
        0.000000000000000
        0.000000000014238
       -0.000000000014614
        0.000000000000000
        0.000000000000000
        0.000000000000000
        0.000000000000000
        0.000000000000000
        0.000000000000000
        0.000000000000000
        0.000000000000000
        0.000000000000000
        0.000000000000000
        0.000000000000000
        0.000000000000000
        0.000000000000000
        0.000000000000000
        0.000000000000000
        0.000000000000000
        0.000000000000000
        0.000000000000000
        0.000000000000000
        0.000000000000000
        0.000000000000000
        0.000000000000000
        0.000000000000000
        0.000000000000000
        0.000000000000000
        0.000000000000000
        0.000000000000000
        0.000000000000000
        0.000000000000000
        0.000000000000000
        0.000000000000000
        0.000000000000000
        0.000000000000000
        0.000000000000000
        0.000000000000000
        0.000000000000000
        0.000000000000000
        0.000000000000000
        0.000000000000000
        0.000000000000000
        0.000000000000000
        0.000000000000000
       -0.000000000000759
        0.000000000008105
        0.000000000000000
        0.000000000000000
        0.000000000000000
        0.000000000000000
        0.000000000000000
        0.000000000000000
        0.000000000000000
       -0.000000000000759
        0.000000000022676
       -0.000000000000621
        0.000000000000000
        0.000000000000000
        0.000000000000000
        0.000000000000000
        0.000000000000000
        0.000000000000000
        0.000000000000000
        0.000000000007218
       -0.000000000000621
        0.000000000000000
        0.000000000000000
        0.000000000000000
        0.000000000000000
        0.000000000000000
        0.000000000000000
        0.000000000000000
        0.000000000000000
        0.000000000000000
        0.000000000000000
        0.000000000000000
        0.000000000000000
        0.000000000000000
        0.000000000000000
        0.000000000000000
        0.000000000000000
        0.000000000000000
        0.000000000000000
        0.000000000000000
        0.000000000000000
        0.000000000000000
        0.000000000000000
        0.000000000000000
        0.000000000000000
        0.000000000000000
        0.000000000000000
        0.000000000000000
        0.000000000000000
        0.000000000000000
        0.000000000000000
END_DATAGRID_3D
END_BLOCK_DATAGRID_3D
