ATOMS
         C    7.558905    7.558905    7.558905
         H    8.755769    8.755769    8.755769
         H    6.362040    6.362040    8.755769
         H    8.755769    6.362040    6.362040
         H    6.362040    8.755769    6.362040
BEGIN_BLOCK_DATAGRID_3D
units: coords = b, function = sqrt(b^-3)
BEGIN_DATAGRID_3D_function
      9      9      9
0.0 0.0 0.0
   15.117809    0.000000    0.000000
    0.000000   15.117809    0.000000
    0.000000    0.000000   15.117809
        0.000000000000000
        0.000000000000000
        0.000000000000000
        0.000000000000000
        0.000000000000000
        0.000000000000000
        0.000000000000000
        0.000000000000000
        0.000000000000000
        0.000000000000000
        0.000000000000000
        0.000000000000000
        0.000000000000000
        0.000000000000000
        0.000000000000000
        0.000000000000000
        0.000000000000000
        0.000000000000000
        0.000000000000000
        0.000000000000000
        0.000000000000000
        0.000000000000000
        0.000000000000000
        0.000000000000000
        0.000000000000000
        0.000000000000000
        0.000000000000000
        0.000000000000000
        0.000000000000000
        0.000000000000000
        0.000000000000000
       -0.000145755811631
        0.000055123072081
        0.000000000000000
        0.000000000000000
        0.000000000000000
        0.000000000000000
        0.000000000000000
        0.000000000000000
       -0.000322712358874
       -0.000135002776912
        0.000141571190977
        0.000000000000000
        0.000000000000000
        0.000000000000000
        0.000000000000000
        0.000000000000000
        0.000000000000000
       -0.000209573169627
       -0.000035356615232
        0.000000000000000
        0.000000000000000
        0.000000000000000
        0.000000000000000
        0.000000000000000
        0.000000000000000
        0.000000000000000
        0.000000000000000
        0.000000000000000
        0.000000000000000
        0.000000000000000
        0.000000000000000
        0.000000000000000
        0.000000000000000
        0.000000000000000
        0.000000000000000
        0.000000000000000
        0.000000000000000
        0.000000000000000
        0.000000000000000
        0.000000000000000
        0.000000000000000
        0.000000000000000
        0.000000000000000
        0.000000000000000
        0.000000000000000
        0.000000000000000
        0.000000000000000
        0.000000000000000
        0.000000000000000
        0.000000000000000
        0.000000000000000
        0.000000000000000
        0.000000000000000
        0.000000000000000
        0.000000000000000
        0.000000000000000
        0.000000000000000
        0.000000000000000
        0.000000000000000
        0.000000000000000
        0.000000000000000
        0.000000000000000
        0.000000000000000
       -0.000314845436531
       -0.000107452327237
        0.000000000000000
        0.000000000000000
        0.000000000000000
        0.000000000000000
        0.000000000000000
        0.000000000000000
       -0.001140900815067
       -0.000952441599651
       -0.000013895955238
        0.000315160074256
        0.000000000000000
        0.000000000000000
        0.000000000000000
        0.000000000000000
       -0.001506491363790
       -0.002442658990553
       -0.001361589430611
        0.000647185678932
        0.001037214930339
        0.000468530114871
        0.000000000000000
        0.000000000000000
       -0.000736386826269
       -0.002101693226113
       -0.002762624645844
       -0.000783429918336
        0.001614315178384
        0.001618784763610
        0.000617054262142
        0.000000000000000
        0.000000000000000
       -0.000580279124464
       -0.001461867621676
       -0.001580993923753
        0.000213575493046
        0.001683307887422
        0.001220761237927
        0.000000000000000
        0.000000000000000
        0.000000000000000
        0.000000000000000
       -0.000512107939132
       -0.000410455349348
        0.000470022079795
        0.000855402216495
        0.000000000000000
        0.000000000000000
        0.000000000000000
        0.000000000000000
        0.000000000000000
        0.000000000000000
       -0.000004088593117
        0.000195784284090
        0.000000000000000
        0.000000000000000
        0.000000000000000
        0.000000000000000
        0.000000000000000
        0.000000000000000
        0.000000000000000
        0.000000000000000
        0.000000000000000
        0.000000000000000
        0.000000000000000
        0.000000000000000
        0.000000000000000
        0.000000000000000
        0.000000000000000
        0.000000000000000
        0.000000000000000
        0.000000000000000
        0.000000000000000
        0.000000000000000
        0.000000000000000
        0.000000000000000
        0.000000000000000
        0.000000000000000
        0.000000000000000
       -0.001515533180651
       -0.001488547807464
       -0.000412164819873
        0.000147326466866
        0.000000000000000
        0.000000000000000
        0.000000000000000
        0.000000000000000
       -0.003066936780195
       -0.005797851201386
       -0.004608677621549
        0.000073021711581
        0.001389444444998
        0.000668743853736
        0.000000000000000
        0.000000000000000
       -0.002186812386489
       -0.007393522510373
       -0.012654630528558
       -0.007833636289174
        0.004554841964400
        0.004860055620394
        0.001876210803660
        0.000000000000000
        0.000000000000000
       -0.003075279074473
       -0.009679307465546
       -0.015961698831918
       -0.003587596161725
        0.011444606703969
        0.008170933934064
        0.002748058893448
        0.000000000000000
        0.000000000000000
       -0.002185176475171
       -0.006209206604009
       -0.008166387833662
        0.003318321514520
        0.010093446137973
        0.006528090713915
        0.002009846311793
        0.000000000000000
        0.000000000000000
       -0.000816931965870
       -0.001994995775523
       -0.001420943420967
        0.003102484150822
        0.004933502526902
        0.002791321303318
        0.000000000000000
        0.000000000000000
        0.000000000000000
        0.000000000000000
       -0.000295287135453
        0.000104000724310
        0.001162435333619
        0.001339212219343
        0.000000000000000
        0.000000000000000
        0.000000000000000
        0.000000000000000
        0.000000000000000
        0.000000000000000
        0.000000000000000
        0.000000000000000
        0.000000000000000
        0.000000000000000
        0.000000000000000
        0.000000000000000
        0.000000000000000
        0.000000000000000
        0.000000000000000
        0.000000000000000
       -0.000612174588844
       -0.000312213452750
        0.000000000000000
        0.000000000000000
        0.000000000000000
        0.000000000000000
        0.000000000000000
       -0.002329375204765
       -0.004382005685572
       -0.003960753596062
       -0.001188415313763
        0.000300668701513
        0.000283154396037
        0.000000000000000
        0.000000000000000
       -0.002635067708543
       -0.009349844864947
       -0.017772180609961
       -0.015232092323761
       -0.000026866130931
        0.003319343374545
        0.001537930854424
        0.000000000000000
        0.000000000000000
       -0.005964204243554
       -0.021946599293278
       -0.046806414014030
       -0.034367737594847
        0.019200904028587
        0.014207954244147
        0.004514232133813
        0.000828931063861
       -0.001169774296442
       -0.007482584266519
       -0.029395351937845
       -0.066139385026268
       -0.009518340061990
        0.056199913335555
        0.027031198736938
        0.007089509604620
        0.001124060182404
       -0.000876707565145
       -0.004914519761446
       -0.016485944664822
       -0.027567196131729
        0.024435985343904
        0.042604617970840
        0.020873737651202
        0.005768295977628
        0.000000000000000
        0.000000000000000
       -0.001748097333748
       -0.004218795080524
       -0.002248162496926
        0.012873856774540
        0.016702280641776
        0.009054164681180
        0.002588574316197
        0.000000000000000
        0.000000000000000
       -0.000340761681664
       -0.000510328819790
        0.000790094999346
        0.003570552268631
        0.004187768151362
        0.002283304771994
        0.000000000000000
        0.000000000000000
        0.000000000000000
        0.000000000000000
        0.000000000000000
        0.000264912632547
        0.000567076379292
        0.000000000000000
        0.000000000000000
        0.000000000000000
        0.000000000000000
        0.000000000000000
        0.000000000000000
        0.000000000000000
       -0.001006153080434
       -0.001060990546700
       -0.000417310304411
        0.000000000000000
        0.000000000000000
        0.000000000000000
        0.000000000000000
       -0.001253241781229
       -0.004047042980207
       -0.007079936224876
       -0.006156849523502
       -0.001942466447422
        0.000255229683934
        0.000317137095040
        0.000000000000000
        0.000000000000000
       -0.004484540758317
       -0.015896733378323
       -0.033327367131801
       -0.028193057258728
       -0.002158118669663
        0.004057966560255
        0.001920597561208
        0.000000000000000
       -0.001386801637512
       -0.009200794363374
       -0.039362607599034
       -0.105097869652151
       -0.074791765060823
        0.027050520519010
        0.020826897344549
        0.006131868928829
        0.001031597887366
       -0.001816562011816
       -0.010540759853315
       -0.048262179395260
       -0.128027465097103
       -0.000005458995805
        0.128005548436022
        0.048251944192389
        0.010536292436431
        0.001815586313660
       -0.001050307449205
       -0.006245232239873
       -0.021380368163808
       -0.028488232028434
        0.074785736821075
        0.106512113699212
        0.039901748186657
        0.009307776589415
        0.001404230546539
        0.000000000000000
       -0.002006148801703
       -0.004365884778773
        0.001608867192638
        0.028191663841645
        0.033870758691560
        0.016199152645223
        0.004567498839278
        0.000000000000000
        0.000000000000000
       -0.000348879380535
       -0.000340132611079
        0.001831736677657
        0.006156632602969
        0.007189645480988
        0.004130663836572
        0.001284345344965
        0.000000000000000
        0.000000000000000
        0.000000000000000
        0.000000000000000
        0.000399187391933
        0.001060959434389
        0.001024182908222
        0.000000000000000
        0.000000000000000
        0.000000000000000
        0.000000000000000
        0.000000000000000
        0.000000000000000
       -0.000901552865731
       -0.000811259094042
        0.000000000000000
        0.000000000000000
        0.000000000000000
        0.000000000000000
        0.000000000000000
       -0.001160073966204
       -0.003635861459934
       -0.006149365389712
       -0.005061311839371
       -0.001583654771916
        0.000086148032395
        0.000000000000000
        0.000000000000000
        0.000000000000000
       -0.003960932241902
       -0.013913132929529
       -0.028349446366708
       -0.020251470719725
       -0.002344610498234
        0.002561305555916
        0.001249853997238
        0.000000000000000
       -0.001201369759532
       -0.007647430456019
       -0.032087282948812
       -0.084921849295310
       -0.043671745363512
        0.013828756590419
        0.013553161195033
        0.004440615566357
        0.000000000000000
       -0.001267334790275
       -0.007963442336728
       -0.031347623824998
       -0.067446716654316
        0.009512311822241
        0.077362720882667
        0.033697446794269
        0.008350135913623
        0.001311768251501
        0.000000000000000
       -0.004248773746757
       -0.012489355415616
       -0.009637613134802
        0.053595839122660
        0.093268793442638
        0.034353954789204
        0.008042470626996
        0.001248055755108
        0.000000000000000
       -0.001204871606466
       -0.002268918081073
        0.003411549121213
        0.022607749733522
        0.030619075451853
        0.014807723159404
        0.004168813074254
        0.000000000000000
        0.000000000000000
        0.000000000000000
       -0.000040724423926
        0.001777320307916
        0.005451183222308
        0.006546705172748
        0.003844316883361
        0.001217082292994
        0.000000000000000
        0.000000000000000
        0.000000000000000
        0.000000000000000
        0.000000000000000
        0.000856324520726
        0.000948760553157
        0.000000000000000
        0.000000000000000
        0.000000000000000
        0.000000000000000
        0.000000000000000
        0.000000000000000
        0.000000000000000
        0.000000000000000
        0.000000000000000
        0.000000000000000
        0.000000000000000
        0.000000000000000
        0.000000000000000
        0.000000000000000
       -0.001694558777860
       -0.002922685705170
       -0.002302712565053
       -0.000727440024906
        0.000000000000000
        0.000000000000000
        0.000000000000000
        0.000000000000000
       -0.001831573330997
       -0.006145776308233
       -0.010665472711574
       -0.007227717964337
       -0.000989519186284
        0.000906058813951
        0.000000000000000
        0.000000000000000
        0.000000000000000
       -0.003523853100479
       -0.011922721406044
       -0.022431221029972
       -0.010695935459705
        0.004264224005569
        0.005087379523181
        0.001828582001642
        0.000000000000000
        0.000000000000000
       -0.003415410485547
       -0.010583310691550
       -0.015756801107246
        0.003586202744642
        0.020268033317927
        0.012086185271413
        0.003740037507038
        0.000000000000000
        0.000000000000000
       -0.001653126928519
       -0.004225240435648
       -0.001706000960190
        0.015209293698935
        0.026037367356522
        0.013267010913555
        0.003830533125018
        0.000000000000000
        0.000000000000000
        0.000000000000000
       -0.000631444270191
        0.001852946889880
        0.008733231341994
        0.012011255789287
        0.006749047704267
        0.001978716043336
        0.000000000000000
        0.000000000000000
        0.000000000000000
        0.000000000000000
        0.000903631570641
        0.002628674083941
        0.003230345844540
        0.001841986773591
        0.000000000000000
        0.000000000000000
        0.000000000000000
        0.000000000000000
        0.000000000000000
        0.000000000000000
        0.000000000000000
        0.000000000000000
        0.000000000000000
        0.000000000000000
        0.000000000000000
        0.000000000000000
        0.000000000000000
        0.000000000000000
        0.000000000000000
        0.000000000000000
        0.000000000000000
        0.000000000000000
        0.000000000000000
        0.000000000000000
        0.000000000000000
        0.000000000000000
        0.000000000000000
       -0.000769227380830
       -0.000620964934213
        0.000000000000000
        0.000000000000000
        0.000000000000000
        0.000000000000000
        0.000000000000000
        0.000000000000000
       -0.001477737974181
       -0.002408229631513
       -0.001610299311228
       -0.000243630022058
        0.000000000000000
        0.000000000000000
        0.000000000000000
        0.000000000000000
       -0.000920556523405
       -0.002684322658047
       -0.003778276466614
       -0.001704335063786
        0.000920805492024
        0.001148691566462
        0.000000000000000
        0.000000000000000
        0.000000000000000
       -0.000865734335495
       -0.002285482365173
       -0.002485574901375
        0.000783212997803
        0.003632863855183
        0.002767108756895
        0.000984428177863
        0.000000000000000
        0.000000000000000
        0.000000000000000
       -0.000863608264901
       -0.000162026387103
        0.002852019056856
        0.004711104180053
        0.003107770654534
        0.001031706574160
        0.000000000000000
        0.000000000000000
        0.000000000000000
        0.000000000000000
        0.000528999205057
        0.002092567876128
        0.002832076979905
        0.001674153166201
        0.000000000000000
        0.000000000000000
        0.000000000000000
        0.000000000000000
        0.000000000000000
        0.000000000000000
        0.000739986345021
        0.000880661390378
        0.000000000000000
        0.000000000000000
        0.000000000000000
        0.000000000000000
        0.000000000000000
        0.000000000000000
        0.000000000000000
        0.000000000000000
        0.000000000000000
        0.000000000000000
        0.000000000000000
        0.000000000000000
        0.000000000000000
        0.000000000000000
        0.000000000000000
        0.000000000000000
        0.000000000000000
        0.000000000000000
        0.000000000000000
        0.000000000000000
        0.000000000000000
        0.000000000000000
        0.000000000000000
        0.000000000000000
        0.000000000000000
        0.000000000000000
        0.000000000000000
        0.000000000000000
        0.000000000000000
        0.000000000000000
        0.000000000000000
        0.000000000000000
        0.000000000000000
        0.000000000000000
        0.000000000000000
        0.000000000000000
        0.000000000000000
        0.000000000000000
        0.000000000000000
        0.000000000000000
        0.000000000000000
        0.000000000000000
       -0.000427067063558
       -0.000208826099517
        0.000000000000000
        0.000000000000000
        0.000000000000000
        0.000000000000000
        0.000000000000000
        0.000000000000000
        0.000000000000000
       -0.000284253329628
        0.000134971664601
        0.000465301412833
        0.000000000000000
        0.000000000000000
        0.000000000000000
        0.000000000000000
        0.000000000000000
        0.000000000000000
        0.000000000000000
        0.000389905743514
        0.000581424028327
        0.000000000000000
        0.000000000000000
        0.000000000000000
        0.000000000000000
        0.000000000000000
        0.000000000000000
        0.000000000000000
        0.000000000000000
        0.000000000000000
        0.000000000000000
        0.000000000000000
        0.000000000000000
        0.000000000000000
        0.000000000000000
        0.000000000000000
        0.000000000000000
        0.000000000000000
        0.000000000000000
        0.000000000000000
        0.000000000000000
        0.000000000000000
        0.000000000000000
        0.000000000000000
        0.000000000000000
        0.000000000000000
        0.000000000000000
        0.000000000000000
        0.000000000000000
        0.000000000000000
        0.000000000000000
END_DATAGRID_3D
END_BLOCK_DATAGRID_3D
