ATOMS
         C    7.558905    7.558905    7.558905
         H    8.755769    8.755769    8.755769
         H    6.362040    6.362040    8.755769
         H    8.755769    6.362040    6.362040
         H    6.362040    8.755769    6.362040
BEGIN_BLOCK_DATAGRID_3D
units: coords = b, function = sqrt(b^-3)
BEGIN_DATAGRID_3D_function
      9      9      9
0.0 0.0 0.0
   15.117809    0.000000    0.000000
    0.000000   15.117809    0.000000
    0.000000    0.000000   15.117809
        0.000000000000000
        0.000000000000000
        0.000000000000000
        0.000000000000000
        0.000000000000000
        0.000000000000000
        0.000000000000000
        0.000000000000000
        0.000000000000000
        0.000000000000000
        0.000000000000000
        0.000000000000000
        0.000000000000000
        0.000000000000000
        0.000000000000000
        0.000000000000000
        0.000000000000000
        0.000000000000000
        0.000000000000000
        0.000000000000000
        0.000000000000000
        0.000000000000000
        0.000000000000000
        0.000000000000000
        0.000000000000000
        0.000000000000000
        0.000000000000000
        0.000000000000000
        0.000000000000000
        0.000000000000000
        0.000000000000000
       -0.000019541458221
        0.000007424414709
        0.000000000000000
        0.000000000000000
        0.000000000000000
        0.000000000000000
        0.000000000000000
        0.000000000000000
       -0.000043060951701
       -0.000018098045909
        0.000019067473912
        0.000000000000000
        0.000000000000000
        0.000000000000000
        0.000000000000000
        0.000000000000000
        0.000000000000000
       -0.000027964056113
       -0.000004740469187
        0.000000000000000
        0.000000000000000
        0.000000000000000
        0.000000000000000
        0.000000000000000
        0.000000000000000
        0.000000000000000
        0.000000000000000
        0.000000000000000
        0.000000000000000
        0.000000000000000
        0.000000000000000
        0.000000000000000
        0.000000000000000
        0.000000000000000
        0.000000000000000
        0.000000000000000
        0.000000000000000
        0.000000000000000
        0.000000000000000
        0.000000000000000
        0.000000000000000
        0.000000000000000
        0.000000000000000
        0.000000000000000
        0.000000000000000
        0.000000000000000
        0.000000000000000
        0.000000000000000
        0.000000000000000
        0.000000000000000
        0.000000000000000
        0.000000000000000
        0.000000000000000
        0.000000000000000
        0.000000000000000
        0.000000000000000
        0.000000000000000
        0.000000000000000
        0.000000000000000
        0.000000000000000
        0.000000000000000
        0.000000000000000
        0.000000000000000
       -0.000042210315430
       -0.000014472644311
        0.000000000000000
        0.000000000000000
        0.000000000000000
        0.000000000000000
        0.000000000000000
        0.000000000000000
       -0.000152234565826
       -0.000127684212838
       -0.000001871569609
        0.000042647332227
        0.000000000000000
        0.000000000000000
        0.000000000000000
        0.000000000000000
       -0.000200064331075
       -0.000325922760791
       -0.000182535876341
        0.000087170519253
        0.000140359138584
        0.000063698235399
        0.000000000000000
        0.000000000000000
       -0.000097327519888
       -0.000279102162081
       -0.000368616401378
       -0.000105027359363
        0.000217435012089
        0.000219058954112
        0.000083890146326
        0.000000000000000
        0.000000000000000
       -0.000076694595926
       -0.000194134043405
       -0.000210951373828
        0.000028631984551
        0.000226728486920
        0.000165193681877
        0.000000000000000
        0.000000000000000
        0.000000000000000
        0.000000000000000
       -0.000068008700963
       -0.000054766714662
        0.000063012255991
        0.000115212088721
        0.000000000000000
        0.000000000000000
        0.000000000000000
        0.000000000000000
        0.000000000000000
        0.000000000000000
       -0.000000545731188
        0.000026245399368
        0.000000000000000
        0.000000000000000
        0.000000000000000
        0.000000000000000
        0.000000000000000
        0.000000000000000
        0.000000000000000
        0.000000000000000
        0.000000000000000
        0.000000000000000
        0.000000000000000
        0.000000000000000
        0.000000000000000
        0.000000000000000
        0.000000000000000
        0.000000000000000
        0.000000000000000
        0.000000000000000
        0.000000000000000
        0.000000000000000
        0.000000000000000
        0.000000000000000
        0.000000000000000
        0.000000000000000
        0.000000000000000
       -0.000202222829743
       -0.000199554813154
       -0.000055515345133
        0.000019935903810
        0.000000000000000
        0.000000000000000
        0.000000000000000
        0.000000000000000
       -0.000407294379548
       -0.000773605495967
       -0.000617843550003
        0.000009835332932
        0.000188023959751
        0.000090917649490
        0.000000000000000
        0.000000000000000
       -0.000289030496100
       -0.000981853266006
       -0.001688511652602
       -0.001050185410720
        0.000613497773334
        0.000657674977570
        0.000255077163984
        0.000000000000000
        0.000000000000000
       -0.000406456118907
       -0.001285407512266
       -0.002129776643867
       -0.000480959140581
        0.001541487683586
        0.001105710065395
        0.000373608211142
        0.000000000000000
        0.000000000000000
       -0.000288812502797
       -0.000824578299337
       -0.001089642970966
        0.000444855034977
        0.001359499755171
        0.000883399064450
        0.000273244423383
        0.000000000000000
        0.000000000000000
       -0.000107973171157
       -0.000264932991445
       -0.000189596056193
        0.000415920958225
        0.000664503009196
        0.000377723133711
        0.000000000000000
        0.000000000000000
        0.000000000000000
        0.000000000000000
       -0.000039214863589
        0.000013876917695
        0.000155838036603
        0.000180376164235
        0.000000000000000
        0.000000000000000
        0.000000000000000
        0.000000000000000
        0.000000000000000
        0.000000000000000
        0.000000000000000
        0.000000000000000
        0.000000000000000
        0.000000000000000
        0.000000000000000
        0.000000000000000
        0.000000000000000
        0.000000000000000
        0.000000000000000
        0.000000000000000
       -0.000082072142418
       -0.000042051617843
        0.000000000000000
        0.000000000000000
        0.000000000000000
        0.000000000000000
        0.000000000000000
       -0.000309343968251
       -0.000584689218517
       -0.000530981852067
       -0.000160069845319
        0.000040687536377
        0.000038495676153
        0.000000000000000
        0.000000000000000
       -0.000348276072084
       -0.001241650966135
       -0.002371348106665
       -0.002042028975809
       -0.000003618237772
        0.000449182016935
        0.000209086682549
        0.000000000000000
        0.000000000000000
       -0.000788283623244
       -0.002914503562576
       -0.006245470454232
       -0.004607401165797
        0.002586165338853
        0.001922609489233
        0.000613736457687
        0.000113218286541
       -0.000153874814141
       -0.000988943993361
       -0.003903780005839
       -0.008825114179195
       -0.001276126729701
        0.007569551910091
        0.003657837145653
        0.000963863406389
        0.000153525351736
       -0.000115322469273
       -0.000649532406214
       -0.002189379679660
       -0.003678336088306
        0.003275877405038
        0.005738402846785
        0.002824676220151
        0.000784218688411
        0.000000000000000
        0.000000000000000
       -0.000231044506949
       -0.000560252858256
       -0.000299972655382
        0.001725875505484
        0.002249651078331
        0.001225234164374
        0.000351924180086
        0.000000000000000
        0.000000000000000
       -0.000045038100811
       -0.000067770630186
        0.000105422333633
        0.000478670554840
        0.000564058619363
        0.000308978406483
        0.000000000000000
        0.000000000000000
        0.000000000000000
        0.000000000000000
        0.000000000000000
        0.000035348046193
        0.000076019240444
        0.000000000000000
        0.000000000000000
        0.000000000000000
        0.000000000000000
        0.000000000000000
        0.000000000000000
        0.000000000000000
       -0.000134254266749
       -0.000142236694390
       -0.000056207582645
        0.000000000000000
        0.000000000000000
        0.000000000000000
        0.000000000000000
       -0.000165639431300
       -0.000537442358706
       -0.000944674320659
       -0.000825391941498
       -0.000261634228075
        0.000034538583479
        0.000043115649539
        0.000000000000000
        0.000000000000000
       -0.000592716049689
       -0.002111078194682
       -0.004446888728880
       -0.003779585987492
       -0.000290674855743
        0.000549132886289
        0.000261111555709
        0.000000000000000
       -0.000182423996758
       -0.001216031836741
       -0.005227446018826
       -0.014023476703091
       -0.010026733063278
        0.003643490390230
        0.002818261592932
        0.000833666123391
        0.000140898081560
       -0.000238955913215
       -0.001393098412011
       -0.006409494828073
       -0.017083068914711
       -0.000002427479990
        0.017240885204962
        0.006529266120732
        0.001432508462757
        0.000247973736466
       -0.000138158216670
       -0.000825407952838
       -0.002839387339716
       -0.003801172823384
        0.010025723047851
        0.014346006534382
        0.005399484780339
        0.001265452406381
        0.000191790091766
        0.000000000000000
       -0.000265150887620
       -0.000579788158289
        0.000214676497645
        0.003779391024750
        0.004562086289846
        0.002192108047153
        0.000620967783411
        0.000000000000000
        0.000000000000000
       -0.000046110991298
       -0.000045168831079
        0.000244408257069
        0.000825362532334
        0.000968386120769
        0.000558973669349
        0.000174610593040
        0.000000000000000
        0.000000000000000
        0.000000000000000
        0.000000000000000
        0.000053264128491
        0.000142233869874
        0.000137945496734
        0.000000000000000
        0.000000000000000
        0.000000000000000
        0.000000000000000
        0.000000000000000
        0.000000000000000
       -0.000120297226392
       -0.000108755098183
        0.000000000000000
        0.000000000000000
        0.000000000000000
        0.000000000000000
        0.000000000000000
       -0.000153325363036
       -0.000482837782505
       -0.000820507525985
       -0.000678523101884
       -0.000213304401768
        0.000011656522434
        0.000000000000000
        0.000000000000000
        0.000000000000000
       -0.000523511018794
       -0.001847655320386
       -0.003782673267985
       -0.002714924873138
       -0.000315795918772
        0.000346602219605
        0.000169921662328
        0.000000000000000
       -0.000158032382017
       -0.001010717810257
       -0.004261302116607
       -0.011331235934006
       -0.005854632630658
        0.001862619893018
        0.001834029402159
        0.000603717829495
        0.000000000000000
       -0.000166707399287
       -0.001052495796218
       -0.004163053352703
       -0.008999535347280
        0.001275116714274
        0.010419945014521
        0.004559909227618
        0.001135255123383
        0.000179162821589
        0.000000000000000
       -0.000561554508828
       -0.001658597122408
       -0.001285931503397
        0.007185135295042
        0.012562398415714
        0.004648719915184
        0.001093438189450
        0.000170458698620
        0.000000000000000
       -0.000159247298282
       -0.000301310961060
        0.000455206006212
        0.003030813018283
        0.004124123183769
        0.002003816378941
        0.000566765672940
        0.000000000000000
        0.000000000000000
        0.000000000000000
       -0.000005409022576
        0.000237148094390
        0.000730789539874
        0.000881786898033
        0.000520224698840
        0.000165466205379
        0.000000000000000
        0.000000000000000
        0.000000000000000
        0.000000000000000
        0.000000000000000
        0.000114802581542
        0.000127786930642
        0.000000000000000
        0.000000000000000
        0.000000000000000
        0.000000000000000
        0.000000000000000
        0.000000000000000
        0.000000000000000
        0.000000000000000
        0.000000000000000
        0.000000000000000
        0.000000000000000
        0.000000000000000
        0.000000000000000
        0.000000000000000
       -0.000225039052614
       -0.000389971986136
       -0.000308703210682
       -0.000097979777844
        0.000000000000000
        0.000000000000000
        0.000000000000000
        0.000000000000000
       -0.000242077602878
       -0.000816151944827
       -0.001423091839600
       -0.000968952810951
       -0.000133278716121
        0.000122607574448
        0.000000000000000
        0.000000000000000
        0.000000000000000
       -0.000465743022945
       -0.001583329879305
       -0.002993002952401
       -0.001433904402631
        0.000574355404388
        0.000688437319529
        0.000248601419030
        0.000000000000000
        0.000000000000000
       -0.000451410818402
       -0.001405458840705
       -0.002102435587368
        0.000480764177838
        0.002729923750517
        0.001635530868047
        0.000508471127978
        0.000000000000000
        0.000000000000000
       -0.000218492874266
       -0.000561108661189
       -0.000227630447852
        0.002038969453194
        0.003507007172663
        0.001795323418306
        0.000520775191505
        0.000000000000000
        0.000000000000000
        0.000000000000000
       -0.000083857805757
        0.000247239210632
        0.001170783538055
        0.001617815662343
        0.000913301489871
        0.000269012051717
        0.000000000000000
        0.000000000000000
        0.000000000000000
        0.000000000000000
        0.000120572332893
        0.000352401516533
        0.000435102273440
        0.000249258724038
        0.000000000000000
        0.000000000000000
        0.000000000000000
        0.000000000000000
        0.000000000000000
        0.000000000000000
        0.000000000000000
        0.000000000000000
        0.000000000000000
        0.000000000000000
        0.000000000000000
        0.000000000000000
        0.000000000000000
        0.000000000000000
        0.000000000000000
        0.000000000000000
        0.000000000000000
        0.000000000000000
        0.000000000000000
        0.000000000000000
        0.000000000000000
        0.000000000000000
        0.000000000000000
       -0.000102640785756
       -0.000083244715873
        0.000000000000000
        0.000000000000000
        0.000000000000000
        0.000000000000000
        0.000000000000000
        0.000000000000000
       -0.000196245215240
       -0.000321328353779
       -0.000215877430070
       -0.000032815702330
        0.000000000000000
        0.000000000000000
        0.000000000000000
        0.000000000000000
       -0.000121668867921
       -0.000356474369286
       -0.000504133818524
       -0.000228484531594
        0.000124025730675
        0.000155441247040
        0.000000000000000
        0.000000000000000
        0.000000000000000
       -0.000114422902710
       -0.000303509027704
       -0.000331649662212
        0.000104997950198
        0.000489316880605
        0.000374453298716
        0.000133836096253
        0.000000000000000
        0.000000000000000
        0.000000000000000
       -0.000114688659751
       -0.000021618363336
        0.000382343564148
        0.000634546533461
        0.000420553096633
        0.000140263646133
        0.000000000000000
        0.000000000000000
        0.000000000000000
        0.000000000000000
        0.000070584068976
        0.000280530916218
        0.000381458497916
        0.000226547295621
        0.000000000000000
        0.000000000000000
        0.000000000000000
        0.000000000000000
        0.000000000000000
        0.000000000000000
        0.000099205510892
        0.000118614016064
        0.000000000000000
        0.000000000000000
        0.000000000000000
        0.000000000000000
        0.000000000000000
        0.000000000000000
        0.000000000000000
        0.000000000000000
        0.000000000000000
        0.000000000000000
        0.000000000000000
        0.000000000000000
        0.000000000000000
        0.000000000000000
        0.000000000000000
        0.000000000000000
        0.000000000000000
        0.000000000000000
        0.000000000000000
        0.000000000000000
        0.000000000000000
        0.000000000000000
        0.000000000000000
        0.000000000000000
        0.000000000000000
        0.000000000000000
        0.000000000000000
        0.000000000000000
        0.000000000000000
        0.000000000000000
        0.000000000000000
        0.000000000000000
        0.000000000000000
        0.000000000000000
        0.000000000000000
        0.000000000000000
        0.000000000000000
        0.000000000000000
        0.000000000000000
        0.000000000000000
        0.000000000000000
        0.000000000000000
       -0.000056985124087
       -0.000027995388552
        0.000000000000000
        0.000000000000000
        0.000000000000000
        0.000000000000000
        0.000000000000000
        0.000000000000000
        0.000000000000000
       -0.000037929186557
        0.000018095221392
        0.000062670440177
        0.000000000000000
        0.000000000000000
        0.000000000000000
        0.000000000000000
        0.000000000000000
        0.000000000000000
        0.000000000000000
        0.000052271897345
        0.000078310898090
        0.000000000000000
        0.000000000000000
        0.000000000000000
        0.000000000000000
        0.000000000000000
        0.000000000000000
        0.000000000000000
        0.000000000000000
        0.000000000000000
        0.000000000000000
        0.000000000000000
        0.000000000000000
        0.000000000000000
        0.000000000000000
        0.000000000000000
        0.000000000000000
        0.000000000000000
        0.000000000000000
        0.000000000000000
        0.000000000000000
        0.000000000000000
        0.000000000000000
        0.000000000000000
        0.000000000000000
        0.000000000000000
        0.000000000000000
        0.000000000000000
        0.000000000000000
        0.000000000000000
        0.000000000000000
END_DATAGRID_3D
END_BLOCK_DATAGRID_3D
