ATOMS
         C    7.558905    7.558905    7.558905
         H    8.755769    8.755769    8.755769
         H    6.362040    6.362040    8.755769
         H    8.755769    6.362040    6.362040
         H    6.362040    8.755769    6.362040
BEGIN_BLOCK_DATAGRID_3D
units: coords = b, function = 1/hbar/H*b^-2
BEGIN_DATAGRID_3D_function
      9      9      9
0.0 0.0 0.0
   15.117809    0.000000    0.000000
    0.000000   15.117809    0.000000
    0.000000    0.000000   15.117809
        0.000000000000000
        0.000000000000000
        0.000000000000000
        0.000000000000000
        0.000000000000000
        0.000000000000000
        0.000000000000000
        0.000000000000000
        0.000000000000000
        0.000000000000000
        0.000000000000000
        0.000000000000000
        0.000000000000000
        0.000000000000000
        0.000000000000000
        0.000000000000000
        0.000000000000000
        0.000000000000000
        0.000000000000000
        0.000000000000000
        0.000000000000000
        0.000000000000000
        0.000000000000000
        0.000000000000000
        0.000000000000000
        0.000000000000000
        0.000000000000000
        0.000000000000000
        0.000000000000000
        0.000000000000000
        0.000000000000000
       -0.000000000103850
        0.000000000071230
        0.000000000000000
        0.000000000000000
        0.000000000000000
        0.000000000000000
        0.000000000000000
        0.000000000000000
       -0.000000000043059
       -0.000000000002843
        0.000000000042207
        0.000000000000000
        0.000000000000000
        0.000000000000000
        0.000000000000000
        0.000000000000000
        0.000000000000000
       -0.000000000073344
        0.000000000102997
        0.000000000000000
        0.000000000000000
        0.000000000000000
        0.000000000000000
        0.000000000000000
        0.000000000000000
        0.000000000000000
        0.000000000000000
        0.000000000000000
        0.000000000000000
        0.000000000000000
        0.000000000000000
        0.000000000000000
        0.000000000000000
        0.000000000000000
        0.000000000000000
        0.000000000000000
        0.000000000000000
        0.000000000000000
        0.000000000000000
        0.000000000000000
        0.000000000000000
        0.000000000000000
        0.000000000000000
        0.000000000000000
        0.000000000000000
        0.000000000000000
        0.000000000000000
        0.000000000000000
        0.000000000000000
        0.000000000000000
        0.000000000000000
        0.000000000000000
        0.000000000000000
        0.000000000000000
        0.000000000000000
        0.000000000000000
        0.000000000000000
        0.000000000000000
        0.000000000000000
        0.000000000000000
        0.000000000000000
        0.000000000000000
        0.000000000000000
       -0.000000000078245
        0.000000000073904
        0.000000000000000
        0.000000000000000
        0.000000000000000
        0.000000000000000
        0.000000000000000
        0.000000000000000
       -0.000000000206382
        0.000000000040409
       -0.000000000033565
        0.000000000132171
        0.000000000000000
        0.000000000000000
        0.000000000000000
        0.000000000000000
       -0.000000000123581
       -0.000000000394634
       -0.000000001058178
        0.000000000607988
        0.000000000548655
       -0.000000000040074
        0.000000000000000
        0.000000000000000
        0.000000000019217
       -0.000000000181481
       -0.000000002023963
        0.000000000031116
        0.000000002033445
        0.000000000187744
       -0.000000000016902
        0.000000000000000
        0.000000000000000
        0.000000000042082
       -0.000000000550625
       -0.000000000603172
        0.000000001066392
        0.000000000399254
        0.000000000120385
        0.000000000000000
        0.000000000000000
        0.000000000000000
        0.000000000000000
       -0.000000000128609
        0.000000000031002
       -0.000000000034115
        0.000000000203159
        0.000000000000000
        0.000000000000000
        0.000000000000000
        0.000000000000000
        0.000000000000000
        0.000000000000000
       -0.000000000071905
        0.000000000080487
        0.000000000000000
        0.000000000000000
        0.000000000000000
        0.000000000000000
        0.000000000000000
        0.000000000000000
        0.000000000000000
        0.000000000000000
        0.000000000000000
        0.000000000000000
        0.000000000000000
        0.000000000000000
        0.000000000000000
        0.000000000000000
        0.000000000000000
        0.000000000000000
        0.000000000000000
        0.000000000000000
        0.000000000000000
        0.000000000000000
        0.000000000000000
        0.000000000000000
        0.000000000000000
        0.000000000000000
        0.000000000000000
       -0.000000000144191
       -0.000000000082829
        0.000000000068509
        0.000000000078866
        0.000000000000000
        0.000000000000000
        0.000000000000000
        0.000000000000000
       -0.000000000274491
        0.000000000043896
        0.000000000445395
       -0.000000000764808
       -0.000000000143360
        0.000000000035941
        0.000000000000000
        0.000000000000000
        0.000000000030860
       -0.000000000677093
        0.000000009115212
        0.000000016860775
       -0.000000011464756
       -0.000000010332105
        0.000000000671431
        0.000000000000000
        0.000000000000000
       -0.000000000285349
        0.000000003901094
        0.000000039851757
       -0.000000000648397
       -0.000000039997094
       -0.000000003911123
        0.000000000292638
        0.000000000000000
        0.000000000000000
       -0.000000000671017
        0.000000010363287
        0.000000011859399
       -0.000000016959963
       -0.000000009150083
        0.000000000679507
       -0.000000000033519
        0.000000000000000
        0.000000000000000
       -0.000000000034188
        0.000000000135945
        0.000000000818738
       -0.000000000449943
       -0.000000000044183
        0.000000000263990
        0.000000000000000
        0.000000000000000
        0.000000000000000
        0.000000000000000
       -0.000000000077426
       -0.000000000070570
        0.000000000088848
        0.000000000141200
        0.000000000000000
        0.000000000000000
        0.000000000000000
        0.000000000000000
        0.000000000000000
        0.000000000000000
        0.000000000000000
        0.000000000000000
        0.000000000000000
        0.000000000000000
        0.000000000000000
        0.000000000000000
        0.000000000000000
        0.000000000000000
        0.000000000000000
        0.000000000000000
       -0.000000000041173
        0.000000000003191
        0.000000000000000
        0.000000000000000
        0.000000000000000
        0.000000000000000
        0.000000000000000
       -0.000000000091008
       -0.000000000196644
        0.000000000105488
       -0.000000000116997
        0.000000000118968
       -0.000000000000357
        0.000000000000000
        0.000000000000000
       -0.000000000035829
       -0.000000000155906
        0.000000001841320
       -0.000000001125838
       -0.000000003303653
       -0.000000000508768
        0.000000000036176
        0.000000000000000
        0.000000000000000
       -0.000000000629070
        0.000000008111862
        0.000000029082346
       -0.000000047740217
       -0.000000092014729
       -0.000000005925739
        0.000000000445542
        0.000000000004021
        0.000000000006531
       -0.000000001961006
        0.000000033977263
        0.000000159920310
       -0.000000002094413
       -0.000000161601430
       -0.000000034017617
        0.000000001977234
       -0.000000000005636
       -0.000000000003997
       -0.000000000434931
        0.000000005989849
        0.000000090871218
        0.000000046392885
       -0.000000029345697
       -0.000000008121722
        0.000000000631283
        0.000000000000000
        0.000000000000000
       -0.000000000034660
        0.000000000529001
        0.000000003360470
        0.000000001161919
       -0.000000001837344
        0.000000000151293
        0.000000000033926
        0.000000000000000
        0.000000000000000
        0.000000000000086
       -0.000000000117830
        0.000000000125629
       -0.000000000097641
        0.000000000196370
        0.000000000088819
        0.000000000000000
        0.000000000000000
        0.000000000000000
        0.000000000000000
        0.000000000000000
       -0.000000000003164
        0.000000000042069
        0.000000000000000
        0.000000000000000
        0.000000000000000
        0.000000000000000
        0.000000000000000
        0.000000000000000
        0.000000000000000
        0.000000000003164
       -0.000000000123210
        0.000000000003191
        0.000000000000000
        0.000000000000000
        0.000000000000000
        0.000000000000000
       -0.000000000000086
       -0.000000000149959
        0.000000000082854
       -0.000000000083398
        0.000000000093078
       -0.000000000147731
       -0.000000000000357
        0.000000000000000
        0.000000000000000
       -0.000000000072402
        0.000000000473051
       -0.000000001215966
       -0.000000003175857
       -0.000000001233298
        0.000000000492596
       -0.000000000070745
        0.000000000000000
        0.000000000003997
       -0.000000001260947
        0.000000017396150
       -0.000000049219601
       -0.000000117620964
       -0.000000050445765
        0.000000017432577
       -0.000000001253627
        0.000000000004021
       -0.000000000000000
       -0.000000000000000
       -0.000000000000000
        0.000000000000000
       -0.000000000000000
       -0.000000000000000
        0.000000000000000
        0.000000000000000
       -0.000000000000000
       -0.000000000003997
        0.000000001260947
       -0.000000017396150
        0.000000049219601
        0.000000117620964
        0.000000050445765
       -0.000000017432577
        0.000000001253627
       -0.000000000004021
        0.000000000000000
        0.000000000072402
       -0.000000000473051
        0.000000001215966
        0.000000003175857
        0.000000001233298
       -0.000000000492596
        0.000000000070745
        0.000000000000000
        0.000000000000000
        0.000000000000086
        0.000000000149959
       -0.000000000082854
        0.000000000083398
       -0.000000000093078
        0.000000000147731
        0.000000000000357
        0.000000000000000
        0.000000000000000
        0.000000000000000
        0.000000000000000
       -0.000000000003164
        0.000000000123210
       -0.000000000003191
        0.000000000000000
        0.000000000000000
        0.000000000000000
        0.000000000000000
        0.000000000000000
        0.000000000000000
        0.000000000003164
       -0.000000000042069
        0.000000000000000
        0.000000000000000
        0.000000000000000
        0.000000000000000
        0.000000000000000
       -0.000000000000086
        0.000000000117830
       -0.000000000125629
        0.000000000097641
       -0.000000000196370
       -0.000000000088819
        0.000000000000000
        0.000000000000000
        0.000000000000000
        0.000000000034660
       -0.000000000529001
       -0.000000003360470
       -0.000000001161919
        0.000000001837344
       -0.000000000151293
       -0.000000000033926
        0.000000000000000
        0.000000000003997
        0.000000000434931
       -0.000000005989849
       -0.000000090871218
       -0.000000046392885
        0.000000029345697
        0.000000008121722
       -0.000000000631283
        0.000000000000000
       -0.000000000006531
        0.000000001961006
       -0.000000033977263
       -0.000000159920310
        0.000000002094412
        0.000000161601430
        0.000000034017617
       -0.000000001977234
        0.000000000005636
        0.000000000000000
        0.000000000629070
       -0.000000008111862
       -0.000000029082346
        0.000000047740217
        0.000000092014729
        0.000000005925739
       -0.000000000445542
       -0.000000000004021
        0.000000000000000
        0.000000000035829
        0.000000000155906
       -0.000000001841320
        0.000000001125838
        0.000000003303653
        0.000000000508768
       -0.000000000036176
        0.000000000000000
        0.000000000000000
        0.000000000000000
        0.000000000091008
        0.000000000196644
       -0.000000000105488
        0.000000000116997
       -0.000000000118968
        0.000000000000357
        0.000000000000000
        0.000000000000000
        0.000000000000000
        0.000000000000000
        0.000000000000000
        0.000000000041173
       -0.000000000003191
        0.000000000000000
        0.000000000000000
        0.000000000000000
        0.000000000000000
        0.000000000000000
        0.000000000000000
        0.000000000000000
        0.000000000000000
        0.000000000000000
        0.000000000000000
        0.000000000000000
        0.000000000000000
        0.000000000000000
        0.000000000000000
        0.000000000077426
        0.000000000070570
       -0.000000000088848
       -0.000000000141200
        0.000000000000000
        0.000000000000000
        0.000000000000000
        0.000000000000000
        0.000000000034188
       -0.000000000135945
       -0.000000000818738
        0.000000000449943
        0.000000000044183
       -0.000000000263990
        0.000000000000000
        0.000000000000000
        0.000000000000000
        0.000000000671017
       -0.000000010363287
       -0.000000011859399
        0.000000016959963
        0.000000009150083
       -0.000000000679507
        0.000000000033519
        0.000000000000000
        0.000000000000000
        0.000000000285349
       -0.000000003901094
       -0.000000039851757
        0.000000000648397
        0.000000039997094
        0.000000003911123
       -0.000000000292638
        0.000000000000000
        0.000000000000000
       -0.000000000030860
        0.000000000677093
       -0.000000009115212
       -0.000000016860775
        0.000000011464756
        0.000000010332105
       -0.000000000671431
        0.000000000000000
        0.000000000000000
        0.000000000000000
        0.000000000274491
       -0.000000000043896
       -0.000000000445395
        0.000000000764808
        0.000000000143360
       -0.000000000035941
        0.000000000000000
        0.000000000000000
        0.000000000000000
        0.000000000000000
        0.000000000144191
        0.000000000082829
       -0.000000000068509
       -0.000000000078866
        0.000000000000000
        0.000000000000000
        0.000000000000000
        0.000000000000000
        0.000000000000000
        0.000000000000000
        0.000000000000000
        0.000000000000000
        0.000000000000000
        0.000000000000000
        0.000000000000000
        0.000000000000000
        0.000000000000000
        0.000000000000000
        0.000000000000000
        0.000000000000000
        0.000000000000000
        0.000000000000000
        0.000000000000000
        0.000000000000000
        0.000000000000000
        0.000000000000000
        0.000000000000000
        0.000000000071905
       -0.000000000080487
        0.000000000000000
        0.000000000000000
        0.000000000000000
        0.000000000000000
        0.000000000000000
        0.000000000000000
        0.000000000128609
       -0.000000000031002
        0.000000000034115
       -0.000000000203159
        0.000000000000000
        0.000000000000000
        0.000000000000000
        0.000000000000000
       -0.000000000042082
        0.000000000550625
        0.000000000603172
       -0.000000001066392
       -0.000000000399254
       -0.000000000120385
        0.000000000000000
        0.000000000000000
        0.000000000000000
       -0.000000000019217
        0.000000000181481
        0.000000002023963
       -0.000000000031116
       -0.000000002033445
       -0.000000000187744
        0.000000000016902
        0.000000000000000
        0.000000000000000
        0.000000000000000
        0.000000000123581
        0.000000000394634
        0.000000001058178
       -0.000000000607988
       -0.000000000548655
        0.000000000040074
        0.000000000000000
        0.000000000000000
        0.000000000000000
        0.000000000000000
        0.000000000206382
       -0.000000000040409
        0.000000000033565
       -0.000000000132171
        0.000000000000000
        0.000000000000000
        0.000000000000000
        0.000000000000000
        0.000000000000000
        0.000000000000000
        0.000000000078245
       -0.000000000073904
        0.000000000000000
        0.000000000000000
        0.000000000000000
        0.000000000000000
        0.000000000000000
        0.000000000000000
        0.000000000000000
        0.000000000000000
        0.000000000000000
        0.000000000000000
        0.000000000000000
        0.000000000000000
        0.000000000000000
        0.000000000000000
        0.000000000000000
        0.000000000000000
        0.000000000000000
        0.000000000000000
        0.000000000000000
        0.000000000000000
        0.000000000000000
        0.000000000000000
        0.000000000000000
        0.000000000000000
        0.000000000000000
        0.000000000000000
        0.000000000000000
        0.000000000000000
        0.000000000000000
        0.000000000000000
        0.000000000000000
        0.000000000000000
        0.000000000000000
        0.000000000000000
        0.000000000000000
        0.000000000000000
        0.000000000000000
        0.000000000000000
        0.000000000000000
        0.000000000000000
        0.000000000000000
        0.000000000000000
        0.000000000073344
       -0.000000000102997
        0.000000000000000
        0.000000000000000
        0.000000000000000
        0.000000000000000
        0.000000000000000
        0.000000000000000
        0.000000000000000
        0.000000000043059
        0.000000000002843
       -0.000000000042207
        0.000000000000000
        0.000000000000000
        0.000000000000000
        0.000000000000000
        0.000000000000000
        0.000000000000000
        0.000000000000000
        0.000000000103850
       -0.000000000071230
        0.000000000000000
        0.000000000000000
        0.000000000000000
        0.000000000000000
        0.000000000000000
        0.000000000000000
        0.000000000000000
        0.000000000000000
        0.000000000000000
        0.000000000000000
        0.000000000000000
        0.000000000000000
        0.000000000000000
        0.000000000000000
        0.000000000000000
        0.000000000000000
        0.000000000000000
        0.000000000000000
        0.000000000000000
        0.000000000000000
        0.000000000000000
        0.000000000000000
        0.000000000000000
        0.000000000000000
        0.000000000000000
        0.000000000000000
        0.000000000000000
        0.000000000000000
        0.000000000000000
        0.000000000000000
END_DATAGRID_3D
END_BLOCK_DATAGRID_3D
