ATOMS
         C    7.558905    7.558905    7.558905
         H    8.755769    8.755769    8.755769
         H    6.362040    6.362040    8.755769
         H    8.755769    6.362040    6.362040
         H    6.362040    8.755769    6.362040
BEGIN_BLOCK_DATAGRID_3D
units: coords = b, function = sqrt(b^-3)
BEGIN_DATAGRID_3D_function
      9      9      9
0.0 0.0 0.0
   15.117809    0.000000    0.000000
    0.000000   15.117809    0.000000
    0.000000    0.000000   15.117809
        0.000000000000000
        0.000000000000000
        0.000000000000000
        0.000000000000000
        0.000000000000000
        0.000000000000000
        0.000000000000000
        0.000000000000000
        0.000000000000000
        0.000000000000000
        0.000000000000000
        0.000000000000000
        0.000000000000000
        0.000000000000000
        0.000000000000000
        0.000000000000000
        0.000000000000000
        0.000000000000000
        0.000000000000000
        0.000000000000000
        0.000000000000000
        0.000000000000000
        0.000000000000000
        0.000000000000000
        0.000000000000000
        0.000000000000000
        0.000000000000000
        0.000000000000000
        0.000000000000000
        0.000000000000000
        0.000000000000000
       -0.000030082476800
        0.000011448175505
        0.000000000000000
        0.000000000000000
        0.000000000000000
        0.000000000000000
        0.000000000000000
        0.000000000000000
       -0.000066137513818
       -0.000027858824590
        0.000029404153804
        0.000000000000000
        0.000000000000000
        0.000000000000000
        0.000000000000000
        0.000000000000000
        0.000000000000000
       -0.000042950195802
       -0.000007301019728
        0.000000000000000
        0.000000000000000
        0.000000000000000
        0.000000000000000
        0.000000000000000
        0.000000000000000
        0.000000000000000
        0.000000000000000
        0.000000000000000
        0.000000000000000
        0.000000000000000
        0.000000000000000
        0.000000000000000
        0.000000000000000
        0.000000000000000
        0.000000000000000
        0.000000000000000
        0.000000000000000
        0.000000000000000
        0.000000000000000
        0.000000000000000
        0.000000000000000
        0.000000000000000
        0.000000000000000
        0.000000000000000
        0.000000000000000
        0.000000000000000
        0.000000000000000
        0.000000000000000
        0.000000000000000
        0.000000000000000
        0.000000000000000
        0.000000000000000
        0.000000000000000
        0.000000000000000
        0.000000000000000
        0.000000000000000
        0.000000000000000
        0.000000000000000
        0.000000000000000
        0.000000000000000
        0.000000000000000
        0.000000000000000
        0.000000000000000
       -0.000064972639657
       -0.000022325355788
        0.000000000000000
        0.000000000000000
        0.000000000000000
        0.000000000000000
        0.000000000000000
        0.000000000000000
       -0.000233808839880
       -0.000196530329458
       -0.000002899871500
        0.000065913151313
        0.000000000000000
        0.000000000000000
        0.000000000000000
        0.000000000000000
       -0.000306584991914
       -0.000500554971994
       -0.000280976128971
        0.000134424291975
        0.000216943134434
        0.000098664380822
        0.000000000000000
        0.000000000000000
       -0.000148811460814
       -0.000427697509023
       -0.000566137609028
       -0.000161697229827
        0.000335339845747
        0.000338589430440
        0.000129940208763
        0.000000000000000
        0.000000000000000
       -0.000117263989811
       -0.000297494864549
       -0.000323998033089
        0.000044031117761
        0.000349689854946
        0.000255328485341
        0.000000000000000
        0.000000000000000
        0.000000000000000
        0.000000000000000
       -0.000104222064848
       -0.000084121039935
        0.000096969376622
        0.000177691502725
        0.000000000000000
        0.000000000000000
        0.000000000000000
        0.000000000000000
        0.000000000000000
        0.000000000000000
       -0.000000841569527
        0.000040388373085
        0.000000000000000
        0.000000000000000
        0.000000000000000
        0.000000000000000
        0.000000000000000
        0.000000000000000
        0.000000000000000
        0.000000000000000
        0.000000000000000
        0.000000000000000
        0.000000000000000
        0.000000000000000
        0.000000000000000
        0.000000000000000
        0.000000000000000
        0.000000000000000
        0.000000000000000
        0.000000000000000
        0.000000000000000
        0.000000000000000
        0.000000000000000
        0.000000000000000
        0.000000000000000
        0.000000000000000
        0.000000000000000
       -0.000310579607352
       -0.000307145927847
       -0.000085642209448
        0.000030807907042
        0.000000000000000
        0.000000000000000
        0.000000000000000
        0.000000000000000
       -0.000624144904859
       -0.001188092613214
       -0.000950992919106
        0.000015107260106
        0.000290611415989
        0.000140824117976
        0.000000000000000
        0.000000000000000
       -0.000441919188576
       -0.001504577370057
       -0.002593241801845
       -0.001616550342678
        0.000946095859708
        0.001016539463376
        0.000395097435459
        0.000000000000000
        0.000000000000000
       -0.000621457399752
       -0.001969745709672
       -0.003271025032163
       -0.000740579562831
        0.002377395967794
        0.001709069123821
        0.000578698946837
        0.000000000000000
        0.000000000000000
       -0.000441586907824
       -0.001263585579850
       -0.001673597063826
        0.000684461133062
        0.002096803262987
        0.001365455870466
        0.000423239984166
        0.000000000000000
        0.000000000000000
       -0.000165089682139
       -0.000405991335911
       -0.000291236600671
        0.000640072020188
        0.001024912221529
        0.000583829556877
        0.000000000000000
        0.000000000000000
        0.000000000000000
        0.000000000000000
       -0.000060099229385
        0.000021297223633
        0.000239838711674
        0.000278200472658
        0.000000000000000
        0.000000000000000
        0.000000000000000
        0.000000000000000
        0.000000000000000
        0.000000000000000
        0.000000000000000
        0.000000000000000
        0.000000000000000
        0.000000000000000
        0.000000000000000
        0.000000000000000
        0.000000000000000
        0.000000000000000
        0.000000000000000
        0.000000000000000
       -0.000126327607196
       -0.000064863223978
        0.000000000000000
        0.000000000000000
        0.000000000000000
        0.000000000000000
        0.000000000000000
       -0.000474042747581
       -0.000897953936843
       -0.000817271992775
       -0.000246929354917
        0.000062877632043
        0.000059625849397
        0.000000000000000
        0.000000000000000
       -0.000532502603951
       -0.001902676154793
       -0.003641903508681
       -0.003143110576635
       -0.000005774990726
        0.000694262961186
        0.000323858816094
        0.000000000000000
        0.000000000000000
       -0.001205257562908
       -0.004466106036759
       -0.009592040958239
       -0.007092187069959
        0.003988135791044
        0.002971637584952
        0.000950669980992
        0.000175728173274
       -0.000234754413719
       -0.001512002724829
       -0.005982222334695
       -0.013554395811609
       -0.001965850461153
        0.011674265936391
        0.005653749409084
        0.001493028955988
        0.000238283167723
       -0.000175933980014
       -0.000993079572041
       -0.003355101387132
       -0.005649851907185
        0.005040974842172
        0.008850481316977
        0.004366102677223
        0.001214716731430
        0.000000000000000
        0.000000000000000
       -0.000353263742635
       -0.000858550589982
       -0.000460881585005
        0.002656070162169
        0.003469799898501
        0.001893842577576
        0.000545112390694
        0.000000000000000
        0.000000000000000
       -0.000068863603417
       -0.000103862484025
        0.000161867556908
        0.000736684886442
        0.000869998080411
        0.000477576423754
        0.000000000000000
        0.000000000000000
        0.000000000000000
        0.000000000000000
        0.000000000000000
        0.000054283496640
        0.000116991439437
        0.000000000000000
        0.000000000000000
        0.000000000000000
        0.000000000000000
        0.000000000000000
        0.000000000000000
        0.000000000000000
       -0.000206190926053
       -0.000218922244087
       -0.000086700575194
        0.000000000000000
        0.000000000000000
        0.000000000000000
        0.000000000000000
       -0.000253256331818
       -0.000823567025563
       -0.001450818811293
       -0.001270421241564
       -0.000403599446307
        0.000053368784917
        0.000066781463641
        0.000000000000000
        0.000000000000000
       -0.000906237158342
       -0.003234951886517
       -0.006829528940494
       -0.005817554337207
       -0.000448635134788
        0.000848737268984
        0.000404442795602
        0.000000000000000
       -0.000278310823156
       -0.001859191321050
       -0.008010531261267
       -0.021538018445545
       -0.015434092379311
        0.005618662673201
        0.004355960192584
        0.001291350334127
        0.000218686423385
       -0.000364563691063
       -0.002129820120467
       -0.009822306831898
       -0.026238122336596
       -0.000012733840881
        0.026589944502572
        0.010091760289410
        0.002219060642463
        0.000384865089195
       -0.000210774429919
       -0.001261974222659
       -0.004351242122976
       -0.005838808733747
        0.015428663423676
        0.022126131152826
        0.008345879134380
        0.001960201858383
        0.000297671460417
        0.000000000000000
       -0.000405412196979
       -0.000888509295324
        0.000329393586658
        0.005816477326453
        0.007036441879799
        0.003388357508578
        0.000961853558488
        0.000000000000000
        0.000000000000000
       -0.000070504451211
       -0.000069232988375
        0.000375300350476
        0.001270257879290
        0.001493624351395
        0.000864002212341
        0.000270463865216
        0.000000000000000
        0.000000000000000
        0.000000000000000
        0.000000000000000
        0.000081795580575
        0.000218906851184
        0.000212760378565
        0.000000000000000
        0.000000000000000
        0.000000000000000
        0.000000000000000
        0.000000000000000
        0.000000000000000
       -0.000184756110144
       -0.000167386058501
        0.000000000000000
        0.000000000000000
        0.000000000000000
        0.000000000000000
        0.000000000000000
       -0.000234428329088
       -0.000739892359258
       -0.001260129500671
       -0.001044367896920
       -0.000329041151525
        0.000018003258295
        0.000000000000000
        0.000000000000000
        0.000000000000000
       -0.000800424139295
       -0.002831285875740
       -0.005809448809878
       -0.004178847578063
       -0.000487279402875
        0.000535699879163
        0.000263196001653
        0.000000000000000
       -0.000241100108305
       -0.001545256391395
       -0.006530107416300
       -0.017402977776002
       -0.009011947372842
        0.002872330372214
        0.002834775737330
        0.000935129892702
        0.000000000000000
       -0.000254330839355
       -0.001609162818880
       -0.006379551049548
       -0.013822431367684
        0.001960421505518
        0.016070527889636
        0.007048089917880
        0.001758523236522
        0.000278074716079
        0.000000000000000
       -0.000858596237934
       -0.002541690661066
       -0.001975487390788
        0.011057582327503
        0.019375480794273
        0.007185344413240
        0.001693784853288
        0.000264560670082
        0.000000000000000
       -0.000243487726091
       -0.000461766689440
        0.000698888140370
        0.004664422457821
        0.006360929321749
        0.003097322586119
        0.000877898630634
        0.000000000000000
        0.000000000000000
        0.000000000000000
       -0.000008303072869
        0.000364163638910
        0.001124707247776
        0.001360052390173
        0.000804108163666
        0.000256299912505
        0.000000000000000
        0.000000000000000
        0.000000000000000
        0.000000000000000
        0.000000000000000
        0.000176692361464
        0.000197091457338
        0.000000000000000
        0.000000000000000
        0.000000000000000
        0.000000000000000
        0.000000000000000
        0.000000000000000
        0.000000000000000
        0.000000000000000
        0.000000000000000
        0.000000000000000
        0.000000000000000
        0.000000000000000
        0.000000000000000
        0.000000000000000
       -0.000344854124756
       -0.000598914464375
       -0.000475150913824
       -0.000151140829811
        0.000000000000000
        0.000000000000000
        0.000000000000000
        0.000000000000000
       -0.000370128483846
       -0.001250649992341
       -0.002185592962345
       -0.001491427803063
       -0.000205638803180
        0.000189491900945
        0.000000000000000
        0.000000000000000
        0.000000000000000
       -0.000712100974105
       -0.002426250885871
       -0.004596733331056
       -0.002207238548956
        0.000885717232640
        0.001064086586272
        0.000385068408180
        0.000000000000000
        0.000000000000000
       -0.000690191955569
       -0.002153715472169
       -0.003229110321673
        0.000739502552078
        0.004210410777217
        0.002528025653742
        0.000787597407253
        0.000000000000000
        0.000000000000000
       -0.000334071141465
       -0.000859865474176
       -0.000349773566465
        0.003137862223864
        0.005409058471315
        0.002775046083929
        0.000806660011269
        0.000000000000000
        0.000000000000000
        0.000000000000000
       -0.000128524781896
        0.000379627247751
        0.001801841762825
        0.002495274895865
        0.001411694204200
        0.000416686655519
        0.000000000000000
        0.000000000000000
        0.000000000000000
        0.000000000000000
        0.000185154459369
        0.000542355942924
        0.000671096269809
        0.000385269644797
        0.000000000000000
        0.000000000000000
        0.000000000000000
        0.000000000000000
        0.000000000000000
        0.000000000000000
        0.000000000000000
        0.000000000000000
        0.000000000000000
        0.000000000000000
        0.000000000000000
        0.000000000000000
        0.000000000000000
        0.000000000000000
        0.000000000000000
        0.000000000000000
        0.000000000000000
        0.000000000000000
        0.000000000000000
        0.000000000000000
        0.000000000000000
        0.000000000000000
        0.000000000000000
       -0.000157641523131
       -0.000128124399612
        0.000000000000000
        0.000000000000000
        0.000000000000000
        0.000000000000000
        0.000000000000000
        0.000000000000000
       -0.000300731289294
       -0.000493496200807
       -0.000332281578773
       -0.000050631859878
        0.000000000000000
        0.000000000000000
        0.000000000000000
        0.000000000000000
       -0.000186027942694
       -0.000546259978734
       -0.000774263910674
       -0.000351714128238
        0.000191267073941
        0.000240251196708
        0.000000000000000
        0.000000000000000
        0.000000000000000
       -0.000174949322215
       -0.000465102504915
       -0.000509380851790
        0.000161533867552
        0.000754685059341
        0.000578781566818
        0.000207305120094
        0.000000000000000
        0.000000000000000
        0.000000000000000
       -0.000175760828535
       -0.000033235325939
        0.000588411383972
        0.000978698743281
        0.000650042661274
        0.000217261381081
        0.000000000000000
        0.000000000000000
        0.000000000000000
        0.000000000000000
        0.000108383691897
        0.000431740344535
        0.000588353931861
        0.000350164400526
        0.000000000000000
        0.000000000000000
        0.000000000000000
        0.000000000000000
        0.000000000000000
        0.000000000000000
        0.000152685864511
        0.000182941224006
        0.000000000000000
        0.000000000000000
        0.000000000000000
        0.000000000000000
        0.000000000000000
        0.000000000000000
        0.000000000000000
        0.000000000000000
        0.000000000000000
        0.000000000000000
        0.000000000000000
        0.000000000000000
        0.000000000000000
        0.000000000000000
        0.000000000000000
        0.000000000000000
        0.000000000000000
        0.000000000000000
        0.000000000000000
        0.000000000000000
        0.000000000000000
        0.000000000000000
        0.000000000000000
        0.000000000000000
        0.000000000000000
        0.000000000000000
        0.000000000000000
        0.000000000000000
        0.000000000000000
        0.000000000000000
        0.000000000000000
        0.000000000000000
        0.000000000000000
        0.000000000000000
        0.000000000000000
        0.000000000000000
        0.000000000000000
        0.000000000000000
        0.000000000000000
        0.000000000000000
        0.000000000000000
        0.000000000000000
       -0.000087522417701
       -0.000043093599336
        0.000000000000000
        0.000000000000000
        0.000000000000000
        0.000000000000000
        0.000000000000000
        0.000000000000000
        0.000000000000000
       -0.000058257831660
        0.000027843431688
        0.000096655649567
        0.000000000000000
        0.000000000000000
        0.000000000000000
        0.000000000000000
        0.000000000000000
        0.000000000000000
        0.000000000000000
        0.000080447231068
        0.000120780057855
        0.000000000000000
        0.000000000000000
        0.000000000000000
        0.000000000000000
        0.000000000000000
        0.000000000000000
        0.000000000000000
        0.000000000000000
        0.000000000000000
        0.000000000000000
        0.000000000000000
        0.000000000000000
        0.000000000000000
        0.000000000000000
        0.000000000000000
        0.000000000000000
        0.000000000000000
        0.000000000000000
        0.000000000000000
        0.000000000000000
        0.000000000000000
        0.000000000000000
        0.000000000000000
        0.000000000000000
        0.000000000000000
        0.000000000000000
        0.000000000000000
        0.000000000000000
        0.000000000000000
        0.000000000000000
END_DATAGRID_3D
END_BLOCK_DATAGRID_3D
