ATOMS
         C    7.558905    7.558905    7.558905
         H    8.755769    8.755769    8.755769
         H    6.362040    6.362040    8.755769
         H    8.755769    6.362040    6.362040
         H    6.362040    8.755769    6.362040
BEGIN_BLOCK_DATAGRID_3D
units: coords = b, function = sqrt(b^-3)
BEGIN_DATAGRID_3D_function
      9      9      9
0.0 0.0 0.0
   15.117809    0.000000    0.000000
    0.000000   15.117809    0.000000
    0.000000    0.000000   15.117809
        0.000000000000000
        0.000000000000000
        0.000000000000000
        0.000000000000000
        0.000000000000000
        0.000000000000000
        0.000000000000000
        0.000000000000000
        0.000000000000000
        0.000000000000000
        0.000000000000000
        0.000000000000000
        0.000000000000000
        0.000000000000000
        0.000000000000000
        0.000000000000000
        0.000000000000000
        0.000000000000000
        0.000000000000000
        0.000000000000000
        0.000000000000000
        0.000000000000000
        0.000000000000000
        0.000000000000000
        0.000000000000000
        0.000000000000000
        0.000000000000000
        0.000000000000000
        0.000000000000000
        0.000000000000000
        0.000000000000000
        0.000753922518639
        0.000525370663190
        0.000000000000000
        0.000000000000000
        0.000000000000000
        0.000000000000000
        0.000000000000000
        0.000000000000000
        0.001204895618834
        0.001508058663143
        0.000818390133849
        0.000000000000000
        0.000000000000000
        0.000000000000000
        0.000000000000000
        0.000000000000000
        0.000000000000000
        0.001199910166266
        0.001269322455313
        0.000000000000000
        0.000000000000000
        0.000000000000000
        0.000000000000000
        0.000000000000000
        0.000000000000000
        0.000000000000000
        0.000000000000000
        0.000000000000000
        0.000000000000000
        0.000000000000000
        0.000000000000000
        0.000000000000000
        0.000000000000000
        0.000000000000000
        0.000000000000000
        0.000000000000000
        0.000000000000000
        0.000000000000000
        0.000000000000000
        0.000000000000000
        0.000000000000000
        0.000000000000000
        0.000000000000000
        0.000000000000000
        0.000000000000000
        0.000000000000000
        0.000000000000000
        0.000000000000000
        0.000000000000000
        0.000000000000000
        0.000000000000000
        0.000000000000000
        0.000000000000000
        0.000000000000000
        0.000000000000000
        0.000000000000000
        0.000000000000000
        0.000000000000000
        0.000000000000000
        0.000000000000000
        0.000000000000000
        0.000000000000000
        0.000000000000000
        0.000023672119728
       -0.000043735711855
        0.000000000000000
        0.000000000000000
        0.000000000000000
        0.000000000000000
        0.000000000000000
        0.000000000000000
        0.000863414148403
        0.000942175055736
        0.000407801118098
        0.000045817037644
        0.000000000000000
        0.000000000000000
        0.000000000000000
        0.000000000000000
        0.001794946629644
        0.003776938621237
        0.004293356907983
        0.002376282634326
        0.000643766982488
        0.000085609971240
        0.000000000000000
        0.000000000000000
        0.001097794593957
        0.003870638850719
        0.007863456665986
        0.008751135106268
        0.004960855232571
        0.001519170825356
        0.000232899096513
        0.000000000000000
        0.000000000000000
        0.001161127376577
        0.004097598262537
        0.008054242944467
        0.008530326728991
        0.004701995324753
        0.001393247062624
        0.000000000000000
        0.000000000000000
        0.000000000000000
        0.000000000000000
        0.002153944786687
        0.004332933368935
        0.004446629634536
        0.002324353127293
        0.000000000000000
        0.000000000000000
        0.000000000000000
        0.000000000000000
        0.000000000000000
        0.000000000000000
        0.001290017724106
        0.001306543307495
        0.000000000000000
        0.000000000000000
        0.000000000000000
        0.000000000000000
        0.000000000000000
        0.000000000000000
        0.000000000000000
        0.000000000000000
        0.000000000000000
        0.000000000000000
        0.000000000000000
        0.000000000000000
        0.000000000000000
        0.000000000000000
        0.000000000000000
        0.000000000000000
        0.000000000000000
        0.000000000000000
        0.000000000000000
        0.000000000000000
        0.000000000000000
        0.000000000000000
        0.000000000000000
        0.000000000000000
        0.000000000000000
       -0.000266675826914
       -0.000674794805388
       -0.000793231169307
       -0.000460232062348
        0.000000000000000
        0.000000000000000
        0.000000000000000
        0.000000000000000
        0.000877689066712
        0.001407606108675
        0.000519751378032
       -0.001010391202282
       -0.000930399353515
       -0.000343040872145
        0.000000000000000
        0.000000000000000
        0.001443375196941
        0.005472771733673
        0.011743144053004
        0.012701145614649
        0.003962799773180
        0.000064849438637
       -0.000279069861848
        0.000000000000000
        0.000000000000000
        0.003367733369882
        0.013438451149658
        0.033409425800749
        0.040072673417654
        0.017029235586706
        0.003389468922297
        0.000276867853748
        0.000000000000000
        0.000000000000000
        0.003724225428186
        0.014996020419678
        0.036374980888367
        0.037734434793973
        0.016847997528209
        0.004174605952942
        0.000525074564763
        0.000000000000000
        0.000000000000000
        0.001996717144050
        0.007693349344870
        0.016069085878338
        0.016304292153912
        0.008237900342195
        0.002192482815563
        0.000000000000000
        0.000000000000000
        0.000000000000000
        0.000000000000000
        0.002113475980761
        0.004236925792884
        0.004317433213585
        0.002234091591350
        0.000000000000000
        0.000000000000000
        0.000000000000000
        0.000000000000000
        0.000000000000000
        0.000000000000000
        0.000000000000000
        0.000000000000000
        0.000000000000000
        0.000000000000000
        0.000000000000000
        0.000000000000000
        0.000000000000000
        0.000000000000000
        0.000000000000000
        0.000000000000000
       -0.000652785810848
       -0.000582422467026
        0.000000000000000
        0.000000000000000
        0.000000000000000
        0.000000000000000
        0.000000000000000
       -0.000687745619367
       -0.002073345019965
       -0.003546078679321
       -0.003159252323602
       -0.001577026354240
       -0.000473228137881
        0.000000000000000
        0.000000000000000
        0.000090733158629
       -0.000429615416016
       -0.003694394544801
       -0.009613661018152
       -0.009854274294934
       -0.004580693433487
       -0.001298857892248
        0.000000000000000
        0.000000000000000
        0.001956476264781
        0.006938485406767
        0.013393356011397
        0.004827679852949
       -0.012859098180344
       -0.006655754962032
       -0.001877329795926
       -0.000325813077472
        0.000767366840372
        0.005424846320527
        0.026465125965418
        0.085762278631294
        0.106306280431330
        0.025172839532145
       -0.000118714348220
       -0.001062611098015
       -0.000262441644921
        0.000855471219934
        0.006333135963471
        0.032075532836810
        0.106288174744360
        0.106097087429384
        0.033472816892997
        0.004986240853660
        0.000207419298537
        0.000000000000000
        0.000000000000000
        0.003642631839480
        0.014624518366497
        0.035270550634711
        0.035951484673988
        0.015615050581585
        0.003703420306414
        0.000417143434653
        0.000000000000000
        0.000000000000000
        0.001116414404142
        0.003919994700404
        0.007611754447696
        0.007903953121405
        0.004234768110813
        0.001195050674049
        0.000000000000000
        0.000000000000000
        0.000000000000000
        0.000000000000000
        0.000000000000000
        0.001111365139519
        0.001156909364394
        0.000000000000000
        0.000000000000000
        0.000000000000000
        0.000000000000000
        0.000000000000000
        0.000000000000000
        0.000000000000000
       -0.000856727215046
       -0.001284868416029
       -0.000867064554787
        0.000000000000000
        0.000000000000000
        0.000000000000000
        0.000000000000000
       -0.000461862102544
       -0.001998726846161
       -0.005160318726128
       -0.007455934120571
       -0.005765212993792
       -0.002592164997600
       -0.000671253106311
        0.000000000000000
        0.000000000000000
       -0.000884851434443
       -0.005319870582829
       -0.018975541735436
       -0.034141300866188
       -0.023993096503049
       -0.009012002431814
       -0.002217626461621
        0.000000000000000
        0.000112395928973
        0.000239847820525
       -0.003605429364852
       -0.031756383077454
       -0.090568792537549
       -0.062737172236019
       -0.018826555255988
       -0.003949481464347
       -0.000541180467667
        0.000639142291445
        0.003708137519930
        0.016973678626386
        0.045024729927321
        0.000005971186880
       -0.044997715476141
       -0.016961071886823
       -0.003702606892436
       -0.000637923130809
        0.000745065062993
        0.005193853678293
        0.024969216996076
        0.078736330250111
        0.090576218020975
        0.015786332247895
       -0.002519561719993
       -0.001476297303410
       -0.000314685994528
        0.000000000000000
        0.003168149503784
        0.012446729697400
        0.030130536073957
        0.034143067749503
        0.012845395653472
        0.001891960991510
       -0.000062449440025
        0.000000000000000
        0.000000000000000
        0.001025456114879
        0.003541847339287
        0.007006068937977
        0.007456206449000
        0.003920737324037
        0.001050639627085
        0.000108452051685
        0.000000000000000
        0.000000000000000
        0.000000000000000
        0.000000000000000
        0.001070180914752
        0.001284907394011
        0.000653726839549
        0.000000000000000
        0.000000000000000
        0.000000000000000
        0.000000000000000
        0.000000000000000
        0.000000000000000
       -0.000887477838160
       -0.001071038551095
        0.000000000000000
        0.000000000000000
        0.000000000000000
        0.000000000000000
        0.000000000000000
       -0.000588450362026
       -0.002461639775607
       -0.005726969592304
       -0.007379644262702
       -0.005150130401052
       -0.002027871173105
        0.000000000000000
        0.000000000000000
        0.000000000000000
       -0.001634303523413
       -0.008247104075001
       -0.024509873040451
       -0.033356586557564
       -0.020661950405113
       -0.007785999521167
       -0.001766072437900
        0.000000000000000
       -0.000124330366809
       -0.001913990364287
       -0.014991993727198
       -0.066727870499107
       -0.099330234020506
       -0.053310312644758
       -0.017086864855038
       -0.003795086452627
        0.000000000000000
        0.000090094151593
        0.000008855178290
       -0.005101338334194
       -0.038782331458636
       -0.106298854947903
       -0.072123679520268
       -0.021227402627761
       -0.004363167669742
       -0.000593424817274
        0.000000000000000
        0.001636244552726
        0.005173343144714
        0.006457388254629
       -0.011584916561954
       -0.026677179037990
       -0.010413805824228
       -0.002535306053738
       -0.000403968958916
        0.000000000000000
        0.001260071511591
        0.004516284621138
        0.008744988476458
        0.007021233410012
       -0.000899683708048
       -0.001790698358737
       -0.000706628835107
        0.000000000000000
        0.000000000000000
        0.000000000000000
        0.001521370618494
        0.002989421509530
        0.003022186120598
        0.001275691355952
        0.000120170868190
       -0.000053992390744
        0.000000000000000
        0.000000000000000
        0.000000000000000
        0.000000000000000
        0.000000000000000
        0.000566956359175
        0.000358650899777
        0.000000000000000
        0.000000000000000
        0.000000000000000
        0.000000000000000
        0.000000000000000
        0.000000000000000
        0.000000000000000
        0.000000000000000
        0.000000000000000
        0.000000000000000
        0.000000000000000
        0.000000000000000
        0.000000000000000
        0.000000000000000
       -0.001413600645811
       -0.003245637050271
       -0.003916437311969
       -0.002449135183635
        0.000000000000000
        0.000000000000000
        0.000000000000000
        0.000000000000000
       -0.001065030618153
       -0.004830006230477
       -0.011818486686778
       -0.014853528946818
       -0.009624210931110
       -0.003492050168831
        0.000000000000000
        0.000000000000000
        0.000000000000000
       -0.001715897112119
       -0.008618606128181
       -0.025614303294106
       -0.035139536677549
       -0.021894897351737
       -0.008257185167695
       -0.001874003568011
        0.000000000000000
        0.000000000000000
       -0.001084435300542
       -0.006311592035086
       -0.022254431462227
       -0.040070906534338
       -0.028176936436282
       -0.010509510362601
       -0.002556943755394
        0.000000000000000
        0.000000000000000
       -0.000092570526721
       -0.001386102528550
       -0.006692550121347
       -0.015293573222789
       -0.014716757776162
       -0.006436241230861
       -0.001726416865507
        0.000000000000000
        0.000000000000000
        0.000000000000000
        0.000423122805554
       -0.000020145729419
       -0.001969655721102
       -0.003237542073851
       -0.001930111589007
       -0.000587347273056
        0.000000000000000
        0.000000000000000
        0.000000000000000
        0.000000000000000
        0.000481881875044
        0.000273989206645
       -0.000197429487235
       -0.000238980732654
        0.000000000000000
        0.000000000000000
        0.000000000000000
        0.000000000000000
        0.000000000000000
        0.000000000000000
        0.000000000000000
        0.000000000000000
        0.000000000000000
        0.000000000000000
        0.000000000000000
        0.000000000000000
        0.000000000000000
        0.000000000000000
        0.000000000000000
        0.000000000000000
        0.000000000000000
        0.000000000000000
        0.000000000000000
        0.000000000000000
        0.000000000000000
        0.000000000000000
        0.000000000000000
       -0.001018068180299
       -0.001157029599160
        0.000000000000000
        0.000000000000000
        0.000000000000000
        0.000000000000000
        0.000000000000000
        0.000000000000000
       -0.001454069451737
       -0.003341644626322
       -0.004045633732920
       -0.002539396719578
        0.000000000000000
        0.000000000000000
        0.000000000000000
        0.000000000000000
       -0.000633163334461
       -0.002639243337741
       -0.006169458089075
       -0.008006017870288
       -0.005617357614993
       -0.002226067561680
        0.000000000000000
        0.000000000000000
        0.000000000000000
       -0.000534200581622
       -0.002327518357593
       -0.006017706454137
       -0.008750862777839
       -0.006805330902325
       -0.003060696195871
       -0.000795700151138
        0.000000000000000
        0.000000000000000
        0.000000000000000
       -0.000961321630518
       -0.002860862131672
       -0.004817249466707
       -0.004259843601975
       -0.002100622468538
       -0.000612830499865
        0.000000000000000
        0.000000000000000
        0.000000000000000
        0.000000000000000
       -0.000648208100273
       -0.001342980654479
       -0.001398461774640
       -0.000745029832645
        0.000000000000000
        0.000000000000000
        0.000000000000000
        0.000000000000000
        0.000000000000000
        0.000000000000000
       -0.000173135837576
       -0.000228080394575
        0.000000000000000
        0.000000000000000
        0.000000000000000
        0.000000000000000
        0.000000000000000
        0.000000000000000
        0.000000000000000
        0.000000000000000
        0.000000000000000
        0.000000000000000
        0.000000000000000
        0.000000000000000
        0.000000000000000
        0.000000000000000
        0.000000000000000
        0.000000000000000
        0.000000000000000
        0.000000000000000
        0.000000000000000
        0.000000000000000
        0.000000000000000
        0.000000000000000
        0.000000000000000
        0.000000000000000
        0.000000000000000
        0.000000000000000
        0.000000000000000
        0.000000000000000
        0.000000000000000
        0.000000000000000
        0.000000000000000
        0.000000000000000
        0.000000000000000
        0.000000000000000
        0.000000000000000
        0.000000000000000
        0.000000000000000
        0.000000000000000
        0.000000000000000
        0.000000000000000
        0.000000000000000
        0.000000000000000
       -0.000976022864908
       -0.001183451642014
        0.000000000000000
        0.000000000000000
        0.000000000000000
        0.000000000000000
        0.000000000000000
        0.000000000000000
        0.000000000000000
       -0.000991441919129
       -0.001508019685161
       -0.001031727849087
        0.000000000000000
        0.000000000000000
        0.000000000000000
        0.000000000000000
        0.000000000000000
        0.000000000000000
        0.000000000000000
       -0.000839751970312
       -0.000749142230439
        0.000000000000000
        0.000000000000000
        0.000000000000000
        0.000000000000000
        0.000000000000000
        0.000000000000000
        0.000000000000000
        0.000000000000000
        0.000000000000000
        0.000000000000000
        0.000000000000000
        0.000000000000000
        0.000000000000000
        0.000000000000000
        0.000000000000000
        0.000000000000000
        0.000000000000000
        0.000000000000000
        0.000000000000000
        0.000000000000000
        0.000000000000000
        0.000000000000000
        0.000000000000000
        0.000000000000000
        0.000000000000000
        0.000000000000000
        0.000000000000000
        0.000000000000000
        0.000000000000000
        0.000000000000000
END_DATAGRID_3D
END_BLOCK_DATAGRID_3D
