ATOMS
         C    7.558905    7.558905    7.558905
         H    8.755769    8.755769    8.755769
         H    6.362040    6.362040    8.755769
         H    8.755769    6.362040    6.362040
         H    6.362040    8.755769    6.362040
BEGIN_BLOCK_DATAGRID_3D
units: coords = b, function = sqrt(b^-3)
BEGIN_DATAGRID_3D_function
      9      9      9
0.0 0.0 0.0
   15.117809    0.000000    0.000000
    0.000000   15.117809    0.000000
    0.000000    0.000000   15.117809
        0.000000000000000
        0.000000000000000
        0.000000000000000
        0.000000000000000
        0.000000000000000
        0.000000000000000
        0.000000000000000
        0.000000000000000
        0.000000000000000
        0.000000000000000
        0.000000000000000
        0.000000000000000
        0.000000000000000
        0.000000000000000
        0.000000000000000
        0.000000000000000
        0.000000000000000
        0.000000000000000
        0.000000000000000
        0.000000000000000
        0.000000000000000
        0.000000000000000
        0.000000000000000
        0.000000000000000
        0.000000000000000
        0.000000000000000
        0.000000000000000
        0.000000000000000
        0.000000000000000
        0.000000000000000
        0.000000000000000
       -0.000143955637781
        0.000054420105989
        0.000000000000000
        0.000000000000000
        0.000000000000000
        0.000000000000000
        0.000000000000000
        0.000000000000000
       -0.000318774147026
       -0.000133361645681
        0.000139785498627
        0.000000000000000
        0.000000000000000
        0.000000000000000
        0.000000000000000
        0.000000000000000
        0.000000000000000
       -0.000207020243572
       -0.000034932860433
        0.000000000000000
        0.000000000000000
        0.000000000000000
        0.000000000000000
        0.000000000000000
        0.000000000000000
        0.000000000000000
        0.000000000000000
        0.000000000000000
        0.000000000000000
        0.000000000000000
        0.000000000000000
        0.000000000000000
        0.000000000000000
        0.000000000000000
        0.000000000000000
        0.000000000000000
        0.000000000000000
        0.000000000000000
        0.000000000000000
        0.000000000000000
        0.000000000000000
        0.000000000000000
        0.000000000000000
        0.000000000000000
        0.000000000000000
        0.000000000000000
        0.000000000000000
        0.000000000000000
        0.000000000000000
        0.000000000000000
        0.000000000000000
        0.000000000000000
        0.000000000000000
        0.000000000000000
        0.000000000000000
        0.000000000000000
        0.000000000000000
        0.000000000000000
        0.000000000000000
        0.000000000000000
        0.000000000000000
        0.000000000000000
        0.000000000000000
       -0.000310942159399
       -0.000106120168021
        0.000000000000000
        0.000000000000000
        0.000000000000000
        0.000000000000000
        0.000000000000000
        0.000000000000000
       -0.001126956744674
       -0.000940720823497
       -0.000013785898103
        0.000311137559022
        0.000000000000000
        0.000000000000000
        0.000000000000000
        0.000000000000000
       -0.001488333442974
       -0.002412934535081
       -0.001344900270644
        0.000638924271371
        0.001023967033633
        0.000462488644895
        0.000000000000000
        0.000000000000000
       -0.000727631966233
       -0.002076434867365
       -0.002729059314432
       -0.000773961301174
        0.001593886763078
        0.001598138046828
        0.000609104533816
        0.000000000000000
        0.000000000000000
       -0.000573385501387
       -0.001444315686189
       -0.001561831924053
        0.000210758947917
        0.001662076680297
        0.001205240136472
        0.000000000000000
        0.000000000000000
        0.000000000000000
        0.000000000000000
       -0.000505949995001
       -0.000405511071317
        0.000464130543896
        0.000844670479268
        0.000000000000000
        0.000000000000000
        0.000000000000000
        0.000000000000000
        0.000000000000000
        0.000000000000000
       -0.000004051558066
        0.000193360178508
        0.000000000000000
        0.000000000000000
        0.000000000000000
        0.000000000000000
        0.000000000000000
        0.000000000000000
        0.000000000000000
        0.000000000000000
        0.000000000000000
        0.000000000000000
        0.000000000000000
        0.000000000000000
        0.000000000000000
        0.000000000000000
        0.000000000000000
        0.000000000000000
        0.000000000000000
        0.000000000000000
        0.000000000000000
        0.000000000000000
        0.000000000000000
        0.000000000000000
        0.000000000000000
        0.000000000000000
        0.000000000000000
       -0.001497001100235
       -0.001470192443713
       -0.000407060087333
        0.000145433396364
        0.000000000000000
        0.000000000000000
        0.000000000000000
        0.000000000000000
       -0.003029942788875
       -0.005727191873002
       -0.004551950616258
        0.000071804569925
        0.001371682433930
        0.000660120688982
        0.000000000000000
        0.000000000000000
       -0.002160793963538
       -0.007304522033104
       -0.012500495268443
       -0.007737616467023
        0.004496900230006
        0.004798132847647
        0.001852023176187
        0.000000000000000
        0.000000000000000
       -0.003038730630643
       -0.009562744459802
       -0.015767623617843
       -0.003544740579057
        0.011300073529278
        0.008066959925775
        0.002712646998026
        0.000000000000000
        0.000000000000000
       -0.002159217020208
       -0.006134496902031
       -0.008067443758754
        0.003276247966610
        0.009966349804178
        0.006445002435611
        0.001983974290562
        0.000000000000000
        0.000000000000000
       -0.000807226356276
       -0.001971052699865
       -0.001403901072650
        0.003063741737229
        0.004871448054234
        0.002755867039732
        0.000000000000000
        0.000000000000000
        0.000000000000000
        0.000000000000000
       -0.000291746937402
        0.000102660985465
        0.001147972524539
        0.001322428508947
        0.000000000000000
        0.000000000000000
        0.000000000000000
        0.000000000000000
        0.000000000000000
        0.000000000000000
        0.000000000000000
        0.000000000000000
        0.000000000000000
        0.000000000000000
        0.000000000000000
        0.000000000000000
        0.000000000000000
        0.000000000000000
        0.000000000000000
        0.000000000000000
       -0.000604577790545
       -0.000308323218807
        0.000000000000000
        0.000000000000000
        0.000000000000000
        0.000000000000000
        0.000000000000000
       -0.002301283096017
       -0.004328591241309
       -0.003911898432937
       -0.001173668983087
        0.000296775343526
        0.000279498889682
        0.000000000000000
        0.000000000000000
       -0.002603712281817
       -0.009237239866889
       -0.017555468011004
       -0.015044528677780
       -0.000027456574270
        0.003276964661138
        0.001518096840443
        0.000000000000000
        0.000000000000000
       -0.005893292648769
       -0.021681929736233
       -0.046235537673977
       -0.033946080908926
        0.018956845580836
        0.014027566936236
        0.004455973869604
        0.000818100432333
       -0.001156048198792
       -0.007393777311540
       -0.029040048408870
       -0.065334697261951
       -0.009407305877999
        0.055491397324407
        0.026688550003686
        0.006998048234626
        0.001109391038187
       -0.000866433520572
       -0.004856216608007
       -0.016286902148878
       -0.027233650139579
        0.024129560506412
        0.042069178611596
        0.020608592155613
        0.005693999078729
        0.000000000000000
        0.000000000000000
       -0.001727338792487
       -0.004168121223897
       -0.002221648909469
        0.012713476432095
        0.016492388805881
        0.008939007481576
        0.002555258210385
        0.000000000000000
        0.000000000000000
       -0.000336717895540
       -0.000504252712271
        0.000780277925559
        0.003526180267495
        0.004135129579437
        0.002254301789433
        0.000000000000000
        0.000000000000000
        0.000000000000000
        0.000000000000000
        0.000000000000000
        0.000261652232195
        0.000560074262660
        0.000000000000000
        0.000000000000000
        0.000000000000000
        0.000000000000000
        0.000000000000000
        0.000000000000000
        0.000000000000000
       -0.000993845963992
       -0.001047896703697
       -0.000412111259777
        0.000000000000000
        0.000000000000000
        0.000000000000000
        0.000000000000000
       -0.001238336573617
       -0.003998339931821
       -0.006993652999188
       -0.006080914392136
       -0.001918330043741
        0.000251894253565
        0.000313042780743
        0.000000000000000
        0.000000000000000
       -0.004431225952038
       -0.015705097041023
       -0.032920914042848
       -0.027845869592933
       -0.002132558184400
        0.004006137712084
        0.001895832796023
        0.000000000000000
       -0.001370516333289
       -0.009091588521642
       -0.038886555776943
       -0.103815807959511
       -0.073873420164439
        0.026705544549309
        0.020562727207403
        0.006052751747064
        0.001018118900316
       -0.001795285384806
       -0.010415779371026
       -0.047677328776761
       -0.126469865435809
       -0.000016772453769
        0.126393984602959
        0.047641917733569
        0.010400244403552
        0.001791860887163
       -0.001038003972005
       -0.006171123736336
       -0.021122140583514
       -0.028146062921189
        0.073852562740277
        0.105174567224396
        0.039396334088177
        0.009187706368959
        0.001385922533792
        0.000000000000000
       -0.001982325001971
       -0.004313521941363
        0.001587674838363
        0.027840906598250
        0.033445310723734
        0.015993331119960
        0.004508667418194
        0.000000000000000
        0.000000000000000
       -0.000344741415202
       -0.000336127846928
        0.001809129265288
        0.006080149449408
        0.007099273719139
        0.004078092988771
        0.001267807870899
        0.000000000000000
        0.000000000000000
        0.000000000000000
        0.000000000000000
        0.000394276333657
        0.001047787218529
        0.001011355101597
        0.000000000000000
        0.000000000000000
        0.000000000000000
        0.000000000000000
        0.000000000000000
        0.000000000000000
       -0.000890528783400
       -0.000801276602358
        0.000000000000000
        0.000000000000000
        0.000000000000000
        0.000000000000000
        0.000000000000000
       -0.001146279147845
       -0.003592117246958
       -0.006074445984349
       -0.004998910274182
       -0.001563970444036
        0.000085005889210
        0.000000000000000
        0.000000000000000
        0.000000000000000
       -0.003913850222836
       -0.013745383833790
       -0.028003994854325
       -0.020002280076970
       -0.002316162927793
        0.002528540347235
        0.001233745517089
        0.000000000000000
       -0.001187266422963
       -0.007556711802053
       -0.031699013498978
       -0.083887201947107
       -0.043136960249312
        0.013652319826226
        0.013380824141027
        0.004383391345126
        0.000000000000000
       -0.001252472106501
       -0.007868934946438
       -0.030968647951586
       -0.066627173618748
        0.009386448453837
        0.076388714449298
        0.033270511291894
        0.008242409881397
        0.001294650395922
        0.000000000000000
       -0.004198292999207
       -0.012338958996692
       -0.009523174486595
        0.052926468324575
        0.092096517042470
        0.033919085029724
        0.007938669319262
        0.001231782733838
        0.000000000000000
       -0.001190560002516
       -0.002241796326927
        0.003368865760669
        0.022326392917336
        0.030234225692815
        0.014619623811508
        0.004115110442561
        0.000000000000000
        0.000000000000000
        0.000000000000000
       -0.000040284341115
        0.001755425992984
        0.005383459095522
        0.006464399266274
        0.003795382845486
        0.001201409700285
        0.000000000000000
        0.000000000000000
        0.000000000000000
        0.000000000000000
        0.000000000000000
        0.000845663949663
        0.000936874684725
        0.000000000000000
        0.000000000000000
        0.000000000000000
        0.000000000000000
        0.000000000000000
        0.000000000000000
        0.000000000000000
        0.000000000000000
        0.000000000000000
        0.000000000000000
        0.000000000000000
        0.000000000000000
        0.000000000000000
        0.000000000000000
       -0.001674131360500
       -0.002887089766907
       -0.002274329035716
       -0.000718393032820
        0.000000000000000
        0.000000000000000
        0.000000000000000
        0.000000000000000
       -0.001809785888968
       -0.006071785512788
       -0.010535597701599
       -0.007138787337204
       -0.000977443272521
        0.000894484857058
        0.000000000000000
        0.000000000000000
        0.000000000000000
       -0.003481971995115
       -0.011779008155656
       -0.022158200005040
       -0.010565051611485
        0.004209876073909
        0.005022545393200
        0.001805029436912
        0.000000000000000
        0.000000000000000
       -0.003374820323366
       -0.010455874522583
       -0.015565615586641
        0.003539777584374
        0.020012679010056
        0.011932508906269
        0.003691853216191
        0.000000000000000
        0.000000000000000
       -0.001633478320795
       -0.004174514160712
       -0.001686106981892
        0.015019480706579
        0.025709868888538
        0.013098455624999
        0.003781184106817
        0.000000000000000
        0.000000000000000
        0.000000000000000
       -0.000623904834606
        0.001829957447713
        0.008624583754953
        0.011860205920311
        0.006663200497347
        0.001953244537561
        0.000000000000000
        0.000000000000000
        0.000000000000000
        0.000000000000000
        0.000892509302241
        0.002596014413568
        0.003189724639185
        0.001818583894526
        0.000000000000000
        0.000000000000000
        0.000000000000000
        0.000000000000000
        0.000000000000000
        0.000000000000000
        0.000000000000000
        0.000000000000000
        0.000000000000000
        0.000000000000000
        0.000000000000000
        0.000000000000000
        0.000000000000000
        0.000000000000000
        0.000000000000000
        0.000000000000000
        0.000000000000000
        0.000000000000000
        0.000000000000000
        0.000000000000000
        0.000000000000000
        0.000000000000000
        0.000000000000000
       -0.000759826920851
       -0.000613328906903
        0.000000000000000
        0.000000000000000
        0.000000000000000
        0.000000000000000
        0.000000000000000
        0.000000000000000
       -0.001459928302901
       -0.002378917710125
       -0.001590487055073
       -0.000240635003141
        0.000000000000000
        0.000000000000000
        0.000000000000000
        0.000000000000000
       -0.000909611541998
       -0.002652054273039
       -0.003732336134737
       -0.001683488954604
        0.000909082455104
        0.001134067542172
        0.000000000000000
        0.000000000000000
        0.000000000000000
       -0.000855446022586
       -0.002258032911383
       -0.002455464419468
        0.000773196358446
        0.003587056912321
        0.002731849195508
        0.000971746117826
        0.000000000000000
        0.000000000000000
        0.000000000000000
       -0.000853233994158
       -0.000160230713243
        0.002816460933229
        0.004651806011816
        0.003068191155379
        0.001018419945071
        0.000000000000000
        0.000000000000000
        0.000000000000000
        0.000000000000000
        0.000522464946680
        0.002066542793352
        0.002796450449954
        0.001652879731867
        0.000000000000000
        0.000000000000000
        0.000000000000000
        0.000000000000000
        0.000000000000000
        0.000000000000000
        0.000730770469626
        0.000869623834983
        0.000000000000000
        0.000000000000000
        0.000000000000000
        0.000000000000000
        0.000000000000000
        0.000000000000000
        0.000000000000000
        0.000000000000000
        0.000000000000000
        0.000000000000000
        0.000000000000000
        0.000000000000000
        0.000000000000000
        0.000000000000000
        0.000000000000000
        0.000000000000000
        0.000000000000000
        0.000000000000000
        0.000000000000000
        0.000000000000000
        0.000000000000000
        0.000000000000000
        0.000000000000000
        0.000000000000000
        0.000000000000000
        0.000000000000000
        0.000000000000000
        0.000000000000000
        0.000000000000000
        0.000000000000000
        0.000000000000000
        0.000000000000000
        0.000000000000000
        0.000000000000000
        0.000000000000000
        0.000000000000000
        0.000000000000000
        0.000000000000000
        0.000000000000000
        0.000000000000000
        0.000000000000000
        0.000000000000000
       -0.000421856307633
       -0.000206269479265
        0.000000000000000
        0.000000000000000
        0.000000000000000
        0.000000000000000
        0.000000000000000
        0.000000000000000
        0.000000000000000
       -0.000280795483310
        0.000133252160513
        0.000459458343192
        0.000000000000000
        0.000000000000000
        0.000000000000000
        0.000000000000000
        0.000000000000000
        0.000000000000000
        0.000000000000000
        0.000385041796899
        0.000574131359929
        0.000000000000000
        0.000000000000000
        0.000000000000000
        0.000000000000000
        0.000000000000000
        0.000000000000000
        0.000000000000000
        0.000000000000000
        0.000000000000000
        0.000000000000000
        0.000000000000000
        0.000000000000000
        0.000000000000000
        0.000000000000000
        0.000000000000000
        0.000000000000000
        0.000000000000000
        0.000000000000000
        0.000000000000000
        0.000000000000000
        0.000000000000000
        0.000000000000000
        0.000000000000000
        0.000000000000000
        0.000000000000000
        0.000000000000000
        0.000000000000000
        0.000000000000000
        0.000000000000000
        0.000000000000000
END_DATAGRID_3D
END_BLOCK_DATAGRID_3D
