ATOMS
         C    7.558905    7.558905    7.558905
         H    8.755769    8.755769    8.755769
         H    6.362040    6.362040    8.755769
         H    8.755769    6.362040    6.362040
         H    6.362040    8.755769    6.362040
BEGIN_BLOCK_DATAGRID_3D
units: coords = b, function = 1/hbar/H*b^-2
BEGIN_DATAGRID_3D_function
      9      9      9
0.0 0.0 0.0
   15.117809    0.000000    0.000000
    0.000000   15.117809    0.000000
    0.000000    0.000000   15.117809
        0.000000000000000
        0.000000000000000
        0.000000000000000
        0.000000000000000
        0.000000000000000
        0.000000000000000
        0.000000000000000
        0.000000000000000
        0.000000000000000
        0.000000000000000
        0.000000000000000
        0.000000000000000
        0.000000000000000
        0.000000000000000
        0.000000000000000
        0.000000000000000
        0.000000000000000
        0.000000000000000
        0.000000000000000
        0.000000000000000
        0.000000000000000
        0.000000000000000
        0.000000000000000
        0.000000000000000
        0.000000000000000
        0.000000000000000
        0.000000000000000
        0.000000000000000
        0.000000000000000
        0.000000000000000
        0.000000000000000
       -0.000000002375100
        0.000000001536370
        0.000000000000000
        0.000000000000000
        0.000000000000000
        0.000000000000000
        0.000000000000000
        0.000000000000000
       -0.000000001690912
       -0.000000000001618
        0.000000001688150
        0.000000000000000
        0.000000000000000
        0.000000000000000
        0.000000000000000
        0.000000000000000
        0.000000000000000
       -0.000000001539838
        0.000000002368392
        0.000000000000000
        0.000000000000000
        0.000000000000000
        0.000000000000000
        0.000000000000000
        0.000000000000000
        0.000000000000000
        0.000000000000000
        0.000000000000000
        0.000000000000000
        0.000000000000000
        0.000000000000000
        0.000000000000000
        0.000000000000000
        0.000000000000000
        0.000000000000000
        0.000000000000000
        0.000000000000000
        0.000000000000000
        0.000000000000000
        0.000000000000000
        0.000000000000000
        0.000000000000000
        0.000000000000000
        0.000000000000000
        0.000000000000000
        0.000000000000000
        0.000000000000000
        0.000000000000000
        0.000000000000000
        0.000000000000000
        0.000000000000000
        0.000000000000000
        0.000000000000000
        0.000000000000000
        0.000000000000000
        0.000000000000000
        0.000000000000000
        0.000000000000000
        0.000000000000000
        0.000000000000000
        0.000000000000000
        0.000000000000000
        0.000000000000000
       -0.000000001428040
        0.000000001308976
        0.000000000000000
        0.000000000000000
        0.000000000000000
        0.000000000000000
        0.000000000000000
        0.000000000000000
       -0.000000004199395
       -0.000000001113509
        0.000000000397083
        0.000000003048575
        0.000000000000000
        0.000000000000000
        0.000000000000000
        0.000000000000000
       -0.000000003277365
       -0.000000009287585
       -0.000000021036361
        0.000000016519796
        0.000000008693745
       -0.000000000203085
        0.000000000000000
        0.000000000000000
        0.000000000239787
       -0.000000006159432
       -0.000000037300169
       -0.000000000051431
        0.000000037376391
        0.000000006200237
       -0.000000000237056
        0.000000000000000
        0.000000000000000
        0.000000000205135
       -0.000000008644205
       -0.000000016525929
        0.000000021031466
        0.000000009312605
        0.000000003292716
        0.000000000000000
        0.000000000000000
        0.000000000000000
        0.000000000000000
       -0.000000003043318
       -0.000000000390068
        0.000000001112569
        0.000000004209054
        0.000000000000000
        0.000000000000000
        0.000000000000000
        0.000000000000000
        0.000000000000000
        0.000000000000000
       -0.000000001309915
        0.000000001428187
        0.000000000000000
        0.000000000000000
        0.000000000000000
        0.000000000000000
        0.000000000000000
        0.000000000000000
        0.000000000000000
        0.000000000000000
        0.000000000000000
        0.000000000000000
        0.000000000000000
        0.000000000000000
        0.000000000000000
        0.000000000000000
        0.000000000000000
        0.000000000000000
        0.000000000000000
        0.000000000000000
        0.000000000000000
        0.000000000000000
        0.000000000000000
        0.000000000000000
        0.000000000000000
        0.000000000000000
        0.000000000000000
       -0.000000002920872
       -0.000000002475350
        0.000000001693517
        0.000000001795918
        0.000000000000000
        0.000000000000000
        0.000000000000000
        0.000000000000000
       -0.000000005997960
        0.000000002386292
        0.000000020578079
       -0.000000019613284
       -0.000000010417159
        0.000000001285307
        0.000000000000000
        0.000000000000000
       -0.000000000548506
       -0.000000007521883
        0.000000243858319
        0.000000399538495
       -0.000000359331824
       -0.000000230874618
        0.000000010881438
        0.000000000000000
        0.000000000000000
       -0.000000008484029
        0.000000135910538
        0.000000950045115
        0.000000000920778
       -0.000000953012822
       -0.000000137133160
        0.000000008558722
        0.000000000000000
        0.000000000000000
       -0.000000010818682
        0.000000229366178
        0.000000360627175
       -0.000000399166122
       -0.000000245268898
        0.000000007439787
        0.000000000564963
        0.000000000000000
        0.000000000000000
       -0.000000001278040
        0.000000010318354
        0.000000019849497
       -0.000000020497678
       -0.000000002495403
        0.000000006019718
        0.000000000000000
        0.000000000000000
        0.000000000000000
        0.000000000000000
       -0.000000001795896
       -0.000000001689053
        0.000000002476783
        0.000000002923135
        0.000000000000000
        0.000000000000000
        0.000000000000000
        0.000000000000000
        0.000000000000000
        0.000000000000000
        0.000000000000000
        0.000000000000000
        0.000000000000000
        0.000000000000000
        0.000000000000000
        0.000000000000000
        0.000000000000000
        0.000000000000000
        0.000000000000000
        0.000000000000000
       -0.000000000891054
       -0.000000000014400
        0.000000000000000
        0.000000000000000
        0.000000000000000
        0.000000000000000
        0.000000000000000
       -0.000000001979778
       -0.000000005073783
        0.000000001108184
       -0.000000000796297
        0.000000002470464
       -0.000000000006493
        0.000000000000000
        0.000000000000000
       -0.000000001187379
       -0.000000001304081
        0.000000061454057
       -0.000000035557477
       -0.000000124745611
       -0.000000010837161
        0.000000001069365
        0.000000000000000
        0.000000000000000
       -0.000000014245217
        0.000000226545379
        0.000000675569178
       -0.000001181519986
       -0.000002166320041
       -0.000000199696948
        0.000000010513871
       -0.000000000088774
       -0.000000000517355
       -0.000000029317364
        0.000000781668787
        0.000002309631555
        0.000000021078815
       -0.000002327351415
       -0.000000786693783
        0.000000029418327
        0.000000000528300
        0.000000000088520
       -0.000000010414326
        0.000000198085580
        0.000002155044853
        0.000001190745156
       -0.000000677935351
       -0.000000228274652
        0.000000014319789
        0.000000000000000
        0.000000000000000
       -0.000000001050533
        0.000000010778145
        0.000000124115751
        0.000000036249543
       -0.000000061736403
        0.000000001213868
        0.000000001198776
        0.000000000000000
        0.000000000000000
        0.000000000006458
       -0.000000002462221
        0.000000000814279
       -0.000000001082829
        0.000000005075862
        0.000000001983891
        0.000000000000000
        0.000000000000000
        0.000000000000000
        0.000000000000000
        0.000000000000000
        0.000000000014614
        0.000000000889794
        0.000000000000000
        0.000000000000000
        0.000000000000000
        0.000000000000000
        0.000000000000000
        0.000000000000000
        0.000000000000000
       -0.000000000014614
       -0.000000002641363
       -0.000000000014400
        0.000000000000000
        0.000000000000000
        0.000000000000000
        0.000000000000000
       -0.000000000006458
       -0.000000003557115
        0.000000001395308
       -0.000000000754799
        0.000000001405589
       -0.000000003554704
       -0.000000000006493
        0.000000000000000
        0.000000000000000
       -0.000000002759172
        0.000000023008988
       -0.000000045761179
       -0.000000126647879
       -0.000000046542835
        0.000000023243294
       -0.000000002769023
        0.000000000000000
       -0.000000000088520
       -0.000000018877510
        0.000000354867745
       -0.000001108521792
       -0.000002849499585
       -0.000001119473145
        0.000000356972011
       -0.000000018902415
       -0.000000000088774
       -0.000000000000000
        0.000000000000000
        0.000000000000000
       -0.000000000000000
        0.000000000000000
       -0.000000000000000
       -0.000000000000000
        0.000000000000000
        0.000000000000000
        0.000000000088520
        0.000000018877510
       -0.000000354867745
        0.000001108521792
        0.000002849499585
        0.000001119473145
       -0.000000356972011
        0.000000018902415
        0.000000000088774
        0.000000000000000
        0.000000002759172
       -0.000000023008988
        0.000000045761179
        0.000000126647879
        0.000000046542835
       -0.000000023243294
        0.000000002769023
        0.000000000000000
        0.000000000000000
        0.000000000006458
        0.000000003557115
       -0.000000001395308
        0.000000000754799
       -0.000000001405589
        0.000000003554704
        0.000000000006493
        0.000000000000000
        0.000000000000000
        0.000000000000000
        0.000000000000000
        0.000000000014614
        0.000000002641363
        0.000000000014400
        0.000000000000000
        0.000000000000000
        0.000000000000000
        0.000000000000000
        0.000000000000000
        0.000000000000000
       -0.000000000014614
       -0.000000000889794
        0.000000000000000
        0.000000000000000
        0.000000000000000
        0.000000000000000
        0.000000000000000
       -0.000000000006458
        0.000000002462221
       -0.000000000814279
        0.000000001082829
       -0.000000005075862
       -0.000000001983891
        0.000000000000000
        0.000000000000000
        0.000000000000000
        0.000000001050533
       -0.000000010778145
       -0.000000124115751
       -0.000000036249543
        0.000000061736403
       -0.000000001213868
       -0.000000001198776
        0.000000000000000
       -0.000000000088520
        0.000000010414326
       -0.000000198085580
       -0.000002155044853
       -0.000001190745156
        0.000000677935351
        0.000000228274652
       -0.000000014319789
        0.000000000000000
        0.000000000517355
        0.000000029317364
       -0.000000781668787
       -0.000002309631555
       -0.000000021078815
        0.000002327351415
        0.000000786693783
       -0.000000029418327
       -0.000000000528300
        0.000000000000000
        0.000000014245217
       -0.000000226545379
       -0.000000675569178
        0.000001181519986
        0.000002166320041
        0.000000199696948
       -0.000000010513871
        0.000000000088774
        0.000000000000000
        0.000000001187379
        0.000000001304081
       -0.000000061454057
        0.000000035557477
        0.000000124745611
        0.000000010837161
       -0.000000001069365
        0.000000000000000
        0.000000000000000
        0.000000000000000
        0.000000001979778
        0.000000005073783
       -0.000000001108184
        0.000000000796297
       -0.000000002470464
        0.000000000006493
        0.000000000000000
        0.000000000000000
        0.000000000000000
        0.000000000000000
        0.000000000000000
        0.000000000891054
        0.000000000014400
        0.000000000000000
        0.000000000000000
        0.000000000000000
        0.000000000000000
        0.000000000000000
        0.000000000000000
        0.000000000000000
        0.000000000000000
        0.000000000000000
        0.000000000000000
        0.000000000000000
        0.000000000000000
        0.000000000000000
        0.000000000000000
        0.000000001795896
        0.000000001689053
       -0.000000002476783
       -0.000000002923135
        0.000000000000000
        0.000000000000000
        0.000000000000000
        0.000000000000000
        0.000000001278040
       -0.000000010318354
       -0.000000019849497
        0.000000020497678
        0.000000002495403
       -0.000000006019718
        0.000000000000000
        0.000000000000000
        0.000000000000000
        0.000000010818682
       -0.000000229366178
       -0.000000360627176
        0.000000399166122
        0.000000245268898
       -0.000000007439787
       -0.000000000564963
        0.000000000000000
        0.000000000000000
        0.000000008484029
       -0.000000135910538
       -0.000000950045115
       -0.000000000920778
        0.000000953012822
        0.000000137133160
       -0.000000008558722
        0.000000000000000
        0.000000000000000
        0.000000000548506
        0.000000007521883
       -0.000000243858319
       -0.000000399538495
        0.000000359331824
        0.000000230874618
       -0.000000010881438
        0.000000000000000
        0.000000000000000
        0.000000000000000
        0.000000005997960
       -0.000000002386292
       -0.000000020578079
        0.000000019613284
        0.000000010417159
       -0.000000001285307
        0.000000000000000
        0.000000000000000
        0.000000000000000
        0.000000000000000
        0.000000002920872
        0.000000002475350
       -0.000000001693517
       -0.000000001795918
        0.000000000000000
        0.000000000000000
        0.000000000000000
        0.000000000000000
        0.000000000000000
        0.000000000000000
        0.000000000000000
        0.000000000000000
        0.000000000000000
        0.000000000000000
        0.000000000000000
        0.000000000000000
        0.000000000000000
        0.000000000000000
        0.000000000000000
        0.000000000000000
        0.000000000000000
        0.000000000000000
        0.000000000000000
        0.000000000000000
        0.000000000000000
        0.000000000000000
        0.000000000000000
        0.000000001309915
       -0.000000001428187
        0.000000000000000
        0.000000000000000
        0.000000000000000
        0.000000000000000
        0.000000000000000
        0.000000000000000
        0.000000003043318
        0.000000000390068
       -0.000000001112569
       -0.000000004209054
        0.000000000000000
        0.000000000000000
        0.000000000000000
        0.000000000000000
       -0.000000000205135
        0.000000008644205
        0.000000016525929
       -0.000000021031466
       -0.000000009312605
       -0.000000003292716
        0.000000000000000
        0.000000000000000
        0.000000000000000
       -0.000000000239787
        0.000000006159432
        0.000000037300169
        0.000000000051431
       -0.000000037376391
       -0.000000006200237
        0.000000000237056
        0.000000000000000
        0.000000000000000
        0.000000000000000
        0.000000003277365
        0.000000009287585
        0.000000021036361
       -0.000000016519796
       -0.000000008693745
        0.000000000203085
        0.000000000000000
        0.000000000000000
        0.000000000000000
        0.000000000000000
        0.000000004199395
        0.000000001113509
       -0.000000000397083
       -0.000000003048575
        0.000000000000000
        0.000000000000000
        0.000000000000000
        0.000000000000000
        0.000000000000000
        0.000000000000000
        0.000000001428040
       -0.000000001308976
        0.000000000000000
        0.000000000000000
        0.000000000000000
        0.000000000000000
        0.000000000000000
        0.000000000000000
        0.000000000000000
        0.000000000000000
        0.000000000000000
        0.000000000000000
        0.000000000000000
        0.000000000000000
        0.000000000000000
        0.000000000000000
        0.000000000000000
        0.000000000000000
        0.000000000000000
        0.000000000000000
        0.000000000000000
        0.000000000000000
        0.000000000000000
        0.000000000000000
        0.000000000000000
        0.000000000000000
        0.000000000000000
        0.000000000000000
        0.000000000000000
        0.000000000000000
        0.000000000000000
        0.000000000000000
        0.000000000000000
        0.000000000000000
        0.000000000000000
        0.000000000000000
        0.000000000000000
        0.000000000000000
        0.000000000000000
        0.000000000000000
        0.000000000000000
        0.000000000000000
        0.000000000000000
        0.000000000000000
        0.000000001539838
       -0.000000002368392
        0.000000000000000
        0.000000000000000
        0.000000000000000
        0.000000000000000
        0.000000000000000
        0.000000000000000
        0.000000000000000
        0.000000001690912
        0.000000000001618
       -0.000000001688150
        0.000000000000000
        0.000000000000000
        0.000000000000000
        0.000000000000000
        0.000000000000000
        0.000000000000000
        0.000000000000000
        0.000000002375100
       -0.000000001536370
        0.000000000000000
        0.000000000000000
        0.000000000000000
        0.000000000000000
        0.000000000000000
        0.000000000000000
        0.000000000000000
        0.000000000000000
        0.000000000000000
        0.000000000000000
        0.000000000000000
        0.000000000000000
        0.000000000000000
        0.000000000000000
        0.000000000000000
        0.000000000000000
        0.000000000000000
        0.000000000000000
        0.000000000000000
        0.000000000000000
        0.000000000000000
        0.000000000000000
        0.000000000000000
        0.000000000000000
        0.000000000000000
        0.000000000000000
        0.000000000000000
        0.000000000000000
        0.000000000000000
        0.000000000000000
END_DATAGRID_3D
END_BLOCK_DATAGRID_3D
