ATOMS
         C    7.558905    7.558905    7.558905
         H    8.755769    8.755769    8.755769
         H    6.362040    6.362040    8.755769
         H    8.755769    6.362040    6.362040
         H    6.362040    8.755769    6.362040
BEGIN_BLOCK_DATAGRID_3D
units: coords = b, function = sqrt(b^-3)
BEGIN_DATAGRID_3D_function
      9      9      9
0.0 0.0 0.0
   15.117809    0.000000    0.000000
    0.000000   15.117809    0.000000
    0.000000    0.000000   15.117809
        0.000000000000000
        0.000000000000000
        0.000000000000000
        0.000000000000000
        0.000000000000000
        0.000000000000000
        0.000000000000000
        0.000000000000000
        0.000000000000000
        0.000000000000000
        0.000000000000000
        0.000000000000000
        0.000000000000000
        0.000000000000000
        0.000000000000000
        0.000000000000000
        0.000000000000000
        0.000000000000000
        0.000000000000000
        0.000000000000000
        0.000000000000000
        0.000000000000000
        0.000000000000000
        0.000000000000000
        0.000000000000000
        0.000000000000000
        0.000000000000000
        0.000000000000000
        0.000000000000000
        0.000000000000000
        0.000000000000000
        0.000676761803029
        0.000471244802675
        0.000000000000000
        0.000000000000000
        0.000000000000000
        0.000000000000000
        0.000000000000000
        0.000000000000000
        0.001083781336083
        0.001354747746888
        0.000734162858046
        0.000000000000000
        0.000000000000000
        0.000000000000000
        0.000000000000000
        0.000000000000000
        0.000000000000000
        0.001079386009182
        0.001140892340673
        0.000000000000000
        0.000000000000000
        0.000000000000000
        0.000000000000000
        0.000000000000000
        0.000000000000000
        0.000000000000000
        0.000000000000000
        0.000000000000000
        0.000000000000000
        0.000000000000000
        0.000000000000000
        0.000000000000000
        0.000000000000000
        0.000000000000000
        0.000000000000000
        0.000000000000000
        0.000000000000000
        0.000000000000000
        0.000000000000000
        0.000000000000000
        0.000000000000000
        0.000000000000000
        0.000000000000000
        0.000000000000000
        0.000000000000000
        0.000000000000000
        0.000000000000000
        0.000000000000000
        0.000000000000000
        0.000000000000000
        0.000000000000000
        0.000000000000000
        0.000000000000000
        0.000000000000000
        0.000000000000000
        0.000000000000000
        0.000000000000000
        0.000000000000000
        0.000000000000000
        0.000000000000000
        0.000000000000000
        0.000000000000000
        0.000000000000000
        0.000021302547290
       -0.000039161594479
        0.000000000000000
        0.000000000000000
        0.000000000000000
        0.000000000000000
        0.000000000000000
        0.000000000000000
        0.000776734555268
        0.000846528984754
        0.000365911817181
        0.000041125678357
        0.000000000000000
        0.000000000000000
        0.000000000000000
        0.000000000000000
        0.001617783554499
        0.003398901332605
        0.003856850504717
        0.002131214255446
        0.000576435576477
        0.000076501197019
        0.000000000000000
        0.000000000000000
        0.000991279009493
        0.003489518245521
        0.007076582689368
        0.007861536180183
        0.004448895880967
        0.001359970251210
        0.000208119302697
        0.000000000000000
        0.000000000000000
        0.001048464751900
        0.003694221672949
        0.007248693556987
        0.007663591185387
        0.004216877033019
        0.001247410109144
        0.000000000000000
        0.000000000000000
        0.000000000000000
        0.000000000000000
        0.001941434011614
        0.003899647062432
        0.003995017047904
        0.002085123280806
        0.000000000000000
        0.000000000000000
        0.000000000000000
        0.000000000000000
        0.000000000000000
        0.000000000000000
        0.001160563590706
        0.001174365583489
        0.000000000000000
        0.000000000000000
        0.000000000000000
        0.000000000000000
        0.000000000000000
        0.000000000000000
        0.000000000000000
        0.000000000000000
        0.000000000000000
        0.000000000000000
        0.000000000000000
        0.000000000000000
        0.000000000000000
        0.000000000000000
        0.000000000000000
        0.000000000000000
        0.000000000000000
        0.000000000000000
        0.000000000000000
        0.000000000000000
        0.000000000000000
        0.000000000000000
        0.000000000000000
        0.000000000000000
        0.000000000000000
       -0.000239690403046
       -0.000605703056382
       -0.000710782366685
       -0.000411770632601
        0.000000000000000
        0.000000000000000
        0.000000000000000
        0.000000000000000
        0.000791179004089
        0.001267369490709
        0.000468423910436
       -0.000904359373621
       -0.000832071692482
       -0.000306297321532
        0.000000000000000
        0.000000000000000
        0.001303297960109
        0.004933111519197
        0.010566592998495
        0.011412515092291
        0.003558576657901
        0.000059022257383
       -0.000249025101150
        0.000000000000000
        0.000000000000000
        0.003041331076437
        0.012110231776555
        0.030057329003971
        0.036002343384858
        0.015282460433910
        0.003035753980152
        0.000247498088013
        0.000000000000000
        0.000000000000000
        0.003363294458282
        0.013512829666961
        0.032732061858808
        0.033905744033721
        0.015116410347688
        0.003737620270166
        0.000469284689844
        0.000000000000000
        0.000000000000000
        0.001802929884308
        0.006934660996048
        0.014461715000032
        0.014648982196539
        0.007389239702563
        0.001963185335374
        0.000000000000000
        0.000000000000000
        0.000000000000000
        0.000000000000000
        0.001904963548904
        0.003813262746449
        0.003878979821567
        0.002004174596368
        0.000000000000000
        0.000000000000000
        0.000000000000000
        0.000000000000000
        0.000000000000000
        0.000000000000000
        0.000000000000000
        0.000000000000000
        0.000000000000000
        0.000000000000000
        0.000000000000000
        0.000000000000000
        0.000000000000000
        0.000000000000000
        0.000000000000000
        0.000000000000000
       -0.000585865403683
       -0.000522288980159
        0.000000000000000
        0.000000000000000
        0.000000000000000
        0.000000000000000
        0.000000000000000
       -0.000619644683570
       -0.001864952405131
       -0.003184080583551
       -0.002831648355918
       -0.001410798910375
       -0.000422589431904
        0.000000000000000
        0.000000000000000
        0.000081993781912
       -0.000386210204235
       -0.003320230066046
       -0.008630051635457
       -0.008832789090141
       -0.004098994043441
       -0.001159761105169
        0.000000000000000
        0.000000000000000
        0.001766961506526
        0.006253041032032
        0.012056046920046
        0.004353681466843
       -0.011515394386598
       -0.005958454543649
       -0.001675959221378
       -0.000290262732787
        0.000694193030930
        0.004899993163989
        0.023833996446360
        0.077143327287596
        0.095514487309598
        0.022625665522776
       -0.000102948224137
       -0.000948648794144
       -0.000233501715540
        0.000774022118448
        0.005720038840596
        0.028884306526552
        0.095629471717698
        0.095344718602665
        0.030055822105305
        0.004466301681325
        0.000185542181777
        0.000000000000000
        0.000000000000000
        0.003289617902551
        0.013178066457702
        0.031738711092574
        0.032304491726807
        0.014010838266503
        0.003315934129996
        0.000372887675887
        0.000000000000000
        0.000000000000000
        0.001008091298917
        0.003534142013353
        0.006850589782603
        0.007101030973116
        0.003798017669314
        0.001070033081027
        0.000000000000000
        0.000000000000000
        0.000000000000000
        0.000000000000000
        0.000000000000000
        0.000999750131966
        0.001039867871060
        0.000000000000000
        0.000000000000000
        0.000000000000000
        0.000000000000000
        0.000000000000000
        0.000000000000000
        0.000000000000000
       -0.000770484964504
       -0.001154008271389
       -0.000777649020405
        0.000000000000000
        0.000000000000000
        0.000000000000000
        0.000000000000000
       -0.000416993612845
       -0.001801416139507
       -0.004642590165632
       -0.006696089670158
       -0.005168140909084
       -0.002319267043254
       -0.000599524685684
        0.000000000000000
        0.000000000000000
       -0.000798914212738
       -0.004792155335997
       -0.017063036349505
       -0.030659458112671
       -0.021515345857708
       -0.008065702166386
       -0.001980300271543
        0.000000000000000
        0.000101913283825
        0.000216603975812
       -0.003242416855498
       -0.028529680553800
       -0.081328290251796
       -0.056268239659835
       -0.016859166311623
       -0.003526089980963
       -0.000482415838020
        0.000578642408952
        0.003349169535958
        0.015284410030074
        0.040528959486251
       -0.000003804746676
       -0.040322256832911
       -0.015191990748526
       -0.003305809713989
       -0.000568085294163
        0.000674056529700
        0.004691358570019
        0.022486949239867
        0.070828385145276
        0.081388642629034
        0.014205588505629
       -0.002253479359218
       -0.001317974015378
       -0.000280082790869
        0.000000000000000
        0.002861117440196
        0.011216701101259
        0.027108883357023
        0.030677397580001
        0.011530649660636
        0.001695331717610
       -0.000055511212136
        0.000000000000000
        0.000000000000000
        0.000925973652090
        0.003193191270624
        0.006305246979356
        0.006698640573590
        0.003516523352004
        0.000940769023852
        0.000096975846330
        0.000000000000000
        0.000000000000000
        0.000000000000000
        0.000000000000000
        0.000962636882093
        0.001154355366248
        0.000586489142007
        0.000000000000000
        0.000000000000000
        0.000000000000000
        0.000000000000000
        0.000000000000000
        0.000000000000000
       -0.000798243912558
       -0.000962562374616
        0.000000000000000
        0.000000000000000
        0.000000000000000
        0.000000000000000
        0.000000000000000
       -0.000531279162287
       -0.002218849091671
       -0.005153088323540
       -0.006628305972345
       -0.004617342166976
       -0.001815003801057
        0.000000000000000
        0.000000000000000
        0.000000000000000
       -0.001475711518000
       -0.007429532813104
       -0.022049310473463
       -0.029962877063673
       -0.018529372587590
       -0.006967617437842
       -0.001577489464446
        0.000000000000000
       -0.000112378516841
       -0.001728337387610
       -0.013495145372984
       -0.060012010270240
       -0.089226029421574
       -0.047822988702275
       -0.015295241277450
       -0.003388932149755
        0.000000000000000
        0.000081776782595
        0.000007969381841
       -0.004589464061990
       -0.034844622696119
       -0.095454134932359
       -0.064688316676982
       -0.019009697446704
       -0.003895415202197
       -0.000528996913349
        0.000000000000000
        0.001477800185830
        0.004662851735817
        0.005821681091322
       -0.010381423082925
       -0.023905551314027
       -0.009324816258886
       -0.002263448358382
       -0.000359916021387
        0.000000000000000
        0.001137830193082
        0.004071202133494
        0.007870482493441
        0.006312756487423
       -0.000800572632195
       -0.001601970825038
       -0.000630829165981
        0.000000000000000
        0.000000000000000
        0.000000000000000
        0.001371287370006
        0.002690484644388
        0.002715380993047
        0.001144715982198
        0.000107987360772
       -0.000048178953045
        0.000000000000000
        0.000000000000000
        0.000000000000000
        0.000000000000000
        0.000000000000000
        0.000508961198300
        0.000321742019567
        0.000000000000000
        0.000000000000000
        0.000000000000000
        0.000000000000000
        0.000000000000000
        0.000000000000000
        0.000000000000000
        0.000000000000000
        0.000000000000000
        0.000000000000000
        0.000000000000000
        0.000000000000000
        0.000000000000000
        0.000000000000000
       -0.001273964434372
       -0.002920572956149
       -0.003517998932477
       -0.002196643081656
        0.000000000000000
        0.000000000000000
        0.000000000000000
        0.000000000000000
       -0.000961535729770
       -0.004352888225068
       -0.010634024822989
       -0.013342182017666
       -0.008629836651920
       -0.003125733686850
        0.000000000000000
        0.000000000000000
        0.000000000000000
       -0.001549388073731
       -0.007764296022363
       -0.023042661239696
       -0.031564129370586
       -0.019634944668775
       -0.007389303578012
       -0.001673886478403
        0.000000000000000
        0.000000000000000
       -0.000979127848979
       -0.005685686011294
       -0.020011481996453
       -0.035984403917527
       -0.025267156630982
       -0.009406124428928
       -0.002283309571692
        0.000000000000000
        0.000000000000000
       -0.000083473985114
       -0.001248119589938
       -0.006016340571100
       -0.013729810240325
       -0.013191938380238
       -0.005759987125863
       -0.001541565170000
        0.000000000000000
        0.000000000000000
        0.000000000000000
        0.000381640506419
       -0.000016778948011
       -0.001766809803269
       -0.002900666387054
       -0.001726656303341
       -0.000524495590063
        0.000000000000000
        0.000000000000000
        0.000000000000000
        0.000000000000000
        0.000433640742797
        0.000246559157693
       -0.000176559354141
       -0.000213732786683
        0.000000000000000
        0.000000000000000
        0.000000000000000
        0.000000000000000
        0.000000000000000
        0.000000000000000
        0.000000000000000
        0.000000000000000
        0.000000000000000
        0.000000000000000
        0.000000000000000
        0.000000000000000
        0.000000000000000
        0.000000000000000
        0.000000000000000
        0.000000000000000
        0.000000000000000
        0.000000000000000
        0.000000000000000
        0.000000000000000
        0.000000000000000
        0.000000000000000
        0.000000000000000
       -0.000915807941759
       -0.001039869202027
        0.000000000000000
        0.000000000000000
        0.000000000000000
        0.000000000000000
        0.000000000000000
        0.000000000000000
       -0.001310434897083
       -0.003006957272132
       -0.003634036158814
       -0.002277591766094
        0.000000000000000
        0.000000000000000
        0.000000000000000
        0.000000000000000
       -0.000571652615271
       -0.002378928751267
       -0.005551192097924
       -0.007190866184616
       -0.005036201530680
       -0.001992380829173
        0.000000000000000
        0.000000000000000
        0.000000000000000
       -0.000482298970248
       -0.002097743114405
       -0.005413925875644
       -0.007858985276751
       -0.006100513438047
       -0.002738468270613
       -0.000710668142051
        0.000000000000000
        0.000000000000000
        0.000000000000000
       -0.000866140868063
       -0.002573369093348
       -0.004325550095221
       -0.003818146629166
       -0.001879247126080
       -0.000547269581969
        0.000000000000000
        0.000000000000000
        0.000000000000000
        0.000000000000000
       -0.000582784215516
       -0.001205672883443
       -0.001253253538006
       -0.000666629097640
        0.000000000000000
        0.000000000000000
        0.000000000000000
        0.000000000000000
        0.000000000000000
        0.000000000000000
       -0.000155327523118
       -0.000204451522037
        0.000000000000000
        0.000000000000000
        0.000000000000000
        0.000000000000000
        0.000000000000000
        0.000000000000000
        0.000000000000000
        0.000000000000000
        0.000000000000000
        0.000000000000000
        0.000000000000000
        0.000000000000000
        0.000000000000000
        0.000000000000000
        0.000000000000000
        0.000000000000000
        0.000000000000000
        0.000000000000000
        0.000000000000000
        0.000000000000000
        0.000000000000000
        0.000000000000000
        0.000000000000000
        0.000000000000000
        0.000000000000000
        0.000000000000000
        0.000000000000000
        0.000000000000000
        0.000000000000000
        0.000000000000000
        0.000000000000000
        0.000000000000000
        0.000000000000000
        0.000000000000000
        0.000000000000000
        0.000000000000000
        0.000000000000000
        0.000000000000000
        0.000000000000000
        0.000000000000000
        0.000000000000000
        0.000000000000000
       -0.000877879789774
       -0.001063586844228
        0.000000000000000
        0.000000000000000
        0.000000000000000
        0.000000000000000
        0.000000000000000
        0.000000000000000
        0.000000000000000
       -0.000891629418495
       -0.001354400652029
       -0.000925322736444
        0.000000000000000
        0.000000000000000
        0.000000000000000
        0.000000000000000
        0.000000000000000
        0.000000000000000
        0.000000000000000
       -0.000753666008411
       -0.000671791763267
        0.000000000000000
        0.000000000000000
        0.000000000000000
        0.000000000000000
        0.000000000000000
        0.000000000000000
        0.000000000000000
        0.000000000000000
        0.000000000000000
        0.000000000000000
        0.000000000000000
        0.000000000000000
        0.000000000000000
        0.000000000000000
        0.000000000000000
        0.000000000000000
        0.000000000000000
        0.000000000000000
        0.000000000000000
        0.000000000000000
        0.000000000000000
        0.000000000000000
        0.000000000000000
        0.000000000000000
        0.000000000000000
        0.000000000000000
        0.000000000000000
        0.000000000000000
        0.000000000000000
        0.000000000000000
END_DATAGRID_3D
END_BLOCK_DATAGRID_3D
