ATOMS
         C    7.558905    7.558905    7.558905
         H    8.755769    8.755769    8.755769
         H    6.362040    6.362040    8.755769
         H    8.755769    6.362040    6.362040
         H    6.362040    8.755769    6.362040
BEGIN_BLOCK_DATAGRID_3D
units: coords = b, function = sqrt(b^-3)
BEGIN_DATAGRID_3D_function
      9      9      9
0.0 0.0 0.0
   15.117809    0.000000    0.000000
    0.000000   15.117809    0.000000
    0.000000    0.000000   15.117809
        0.000000000000000
        0.000000000000000
        0.000000000000000
        0.000000000000000
        0.000000000000000
        0.000000000000000
        0.000000000000000
        0.000000000000000
        0.000000000000000
        0.000000000000000
        0.000000000000000
        0.000000000000000
        0.000000000000000
        0.000000000000000
        0.000000000000000
        0.000000000000000
        0.000000000000000
        0.000000000000000
        0.000000000000000
        0.000000000000000
        0.000000000000000
        0.000000000000000
        0.000000000000000
        0.000000000000000
        0.000000000000000
        0.000000000000000
        0.000000000000000
        0.000000000000000
        0.000000000000000
        0.000000000000000
        0.000000000000000
       -0.000596603214071
       -0.000582436394189
        0.000000000000000
        0.000000000000000
        0.000000000000000
        0.000000000000000
        0.000000000000000
        0.000000000000000
       -0.000353276610966
       -0.000695341493224
       -0.000581655135862
        0.000000000000000
        0.000000000000000
        0.000000000000000
        0.000000000000000
        0.000000000000000
        0.000000000000000
       -0.000216407578795
       -0.000336309646967
        0.000000000000000
        0.000000000000000
        0.000000000000000
        0.000000000000000
        0.000000000000000
        0.000000000000000
        0.000000000000000
        0.000000000000000
        0.000000000000000
        0.000000000000000
        0.000000000000000
        0.000000000000000
        0.000000000000000
        0.000000000000000
        0.000000000000000
        0.000000000000000
        0.000000000000000
        0.000000000000000
        0.000000000000000
        0.000000000000000
        0.000000000000000
        0.000000000000000
        0.000000000000000
        0.000000000000000
        0.000000000000000
        0.000000000000000
        0.000000000000000
        0.000000000000000
        0.000000000000000
        0.000000000000000
        0.000000000000000
        0.000000000000000
        0.000000000000000
        0.000000000000000
        0.000000000000000
        0.000000000000000
        0.000000000000000
        0.000000000000000
        0.000000000000000
        0.000000000000000
        0.000000000000000
        0.000000000000000
        0.000000000000000
        0.000000000000000
       -0.000624954848286
       -0.000633534323129
        0.000000000000000
        0.000000000000000
        0.000000000000000
        0.000000000000000
        0.000000000000000
        0.000000000000000
       -0.001054818338120
       -0.002110258654031
       -0.002131031423199
       -0.001088235667671
        0.000000000000000
        0.000000000000000
        0.000000000000000
        0.000000000000000
       -0.000559225810328
       -0.002078307166862
       -0.004008728265820
       -0.003951920391378
       -0.002077082134074
       -0.000604688839341
        0.000000000000000
        0.000000000000000
       -0.000052619337867
       -0.000543798207826
       -0.002090893498531
       -0.004034388275541
       -0.003838164670872
       -0.001968559239569
       -0.000575953320572
        0.000000000000000
        0.000000000000000
        0.000012049322223
       -0.000146669430366
       -0.000886678583057
       -0.001902874830032
       -0.001827574447960
       -0.000917036310324
        0.000000000000000
        0.000000000000000
        0.000000000000000
        0.000000000000000
        0.000052035634180
       -0.000074724001616
       -0.000373800391319
       -0.000408160858402
        0.000000000000000
        0.000000000000000
        0.000000000000000
        0.000000000000000
        0.000000000000000
        0.000000000000000
        0.000052563922430
        0.000011518949292
        0.000000000000000
        0.000000000000000
        0.000000000000000
        0.000000000000000
        0.000000000000000
        0.000000000000000
        0.000000000000000
        0.000000000000000
        0.000000000000000
        0.000000000000000
        0.000000000000000
        0.000000000000000
        0.000000000000000
        0.000000000000000
        0.000000000000000
        0.000000000000000
        0.000000000000000
        0.000000000000000
        0.000000000000000
        0.000000000000000
        0.000000000000000
        0.000000000000000
        0.000000000000000
        0.000000000000000
        0.000000000000000
       -0.001021656860480
       -0.002062331509803
       -0.002095055933964
       -0.001072925922713
        0.000000000000000
        0.000000000000000
        0.000000000000000
        0.000000000000000
       -0.000895761587963
       -0.003698780561570
       -0.007758536120484
       -0.007970570686103
       -0.003927802403795
       -0.001045885038837
        0.000000000000000
        0.000000000000000
       -0.000120112903392
       -0.001545826450307
       -0.007314802989069
       -0.017803135902619
       -0.018087688528594
       -0.007708226195768
       -0.001971302977686
        0.000000000000000
        0.000000000000000
        0.000081949485904
       -0.000878414144341
       -0.006732430884983
       -0.018471558989743
       -0.016613013753181
       -0.006999728739504
       -0.001817650969051
        0.000000000000000
        0.000000000000000
        0.000315585143757
        0.000600288375070
       -0.000677198066228
       -0.005443088797745
       -0.005846750851899
       -0.002927247161884
       -0.000807129060321
        0.000000000000000
        0.000000000000000
        0.000245670428865
        0.000717825287099
        0.000941234159059
        0.000004787159871
       -0.000716104637042
       -0.000511108551221
        0.000000000000000
        0.000000000000000
        0.000000000000000
        0.000000000000000
        0.000284376927360
        0.000482173146633
        0.000383631228951
        0.000126294986816
        0.000000000000000
        0.000000000000000
        0.000000000000000
        0.000000000000000
        0.000000000000000
        0.000000000000000
        0.000000000000000
        0.000000000000000
        0.000000000000000
        0.000000000000000
        0.000000000000000
        0.000000000000000
        0.000000000000000
        0.000000000000000
        0.000000000000000
        0.000000000000000
       -0.000554875804888
       -0.000549271412312
        0.000000000000000
        0.000000000000000
        0.000000000000000
        0.000000000000000
        0.000000000000000
       -0.000487145388214
       -0.001906699471275
       -0.003776337700284
       -0.003786107735483
       -0.002009878233923
       -0.000587606776211
        0.000000000000000
        0.000000000000000
       -0.000081261304525
       -0.001374534148367
       -0.006861963651042
       -0.017141607155935
       -0.017673779701311
       -0.007567628650264
       -0.001940131281082
        0.000000000000000
        0.000000000000000
        0.000207120497945
       -0.001257372368654
       -0.013809875311462
       -0.050256869747725
       -0.053709563812131
       -0.016823556019952
       -0.003451398845366
       -0.000481590828808
        0.000191768747631
        0.000957805943238
        0.001986704422984
       -0.007178711288271
       -0.048991643668213
       -0.044296224176469
       -0.014450706624550
       -0.003090908150999
       -0.000449011511851
        0.000211089223297
        0.001254252802346
        0.004686606268643
        0.010033684577429
       -0.000860868634780
       -0.007719695194682
       -0.004294720944699
       -0.001247597918593
        0.000000000000000
        0.000000000000000
        0.000778961800289
        0.002732331034512
        0.005728598221125
        0.005007866399919
        0.001456260364650
       -0.000107200824522
       -0.000154816270471
        0.000000000000000
        0.000000000000000
        0.000265974839084
        0.000872716850822
        0.001679966462151
        0.001768864827712
        0.000939942812380
        0.000268687377656
        0.000000000000000
        0.000000000000000
        0.000000000000000
        0.000000000000000
        0.000000000000000
        0.000297486266944
        0.000322216496882
        0.000000000000000
        0.000000000000000
        0.000000000000000
        0.000000000000000
        0.000000000000000
        0.000000000000000
        0.000000000000000
       -0.000292768281578
       -0.000612546262289
       -0.000531193034493
        0.000000000000000
        0.000000000000000
        0.000000000000000
        0.000000000000000
       -0.000007823023432
       -0.000373436841557
       -0.001708853389958
       -0.003553923341454
       -0.003516842369901
       -0.001844136274076
       -0.000548320114000
        0.000000000000000
        0.000000000000000
        0.000204070852985
       -0.000334050342574
       -0.005195641486857
       -0.016271378728421
       -0.015384125995335
       -0.006624348194393
       -0.001741398706352
        0.000000000000000
        0.000210416879080
        0.001106569869460
        0.002859564225955
       -0.003729432822969
       -0.043154837179918
       -0.041664057862493
       -0.013884431451139
       -0.003002618039269
       -0.000440432471678
        0.000393469448490
        0.002302307480311
        0.010675215574225
        0.028621510052436
        0.000091625821939
       -0.029128873804148
       -0.011094391117893
       -0.002451576896440
       -0.000425698237249
        0.000317493881274
        0.002268876837043
        0.010570644322428
        0.033593278800434
        0.043205789063797
        0.011270357483164
       -0.000084169602203
       -0.000588115243480
       -0.000130678843204
        0.000000000000000
        0.001215352450915
        0.004812310134624
        0.012285355221173
        0.016284115252524
        0.008166476882943
        0.001963202821578
        0.000233488765101
        0.000000000000000
        0.000000000000000
        0.000358261545599
        0.001343224789061
        0.002881879641235
        0.003555946071649
        0.002322566625796
        0.000835139057403
        0.000176194633516
        0.000000000000000
        0.000000000000000
        0.000000000000000
        0.000000000000000
        0.000428526931618
        0.000612714273207
        0.000393159630624
        0.000000000000000
        0.000000000000000
        0.000000000000000
        0.000000000000000
        0.000000000000000
        0.000000000000000
       -0.000155136274833
       -0.000266970240364
        0.000000000000000
        0.000000000000000
        0.000000000000000
        0.000000000000000
        0.000000000000000
        0.000062304074288
        0.000043709794785
       -0.000482374994957
       -0.001431170164017
       -0.001532424209668
       -0.000813527645950
        0.000000000000000
        0.000000000000000
        0.000000000000000
        0.000469435167974
        0.001274876971940
        0.001109042230048
       -0.003335329993322
       -0.004722965053320
       -0.002565210477171
       -0.000737113248206
        0.000000000000000
        0.000238989807070
        0.001490770062611
        0.006053488108054
        0.015110495687916
        0.005228973252704
       -0.005120631088037
       -0.003626407774983
       -0.001125277329438
        0.000000000000000
        0.000336142012723
        0.002417640763265
        0.011443504125399
        0.037042557265736
        0.049042595552091
        0.013902523797140
        0.000482105571209
       -0.000499825131751
       -0.000122099803031
        0.000000000000000
        0.002026119164658
        0.008868620794360
        0.026429863759400
        0.045949072924104
        0.028112440167729
        0.005654118704083
        0.000530987494785
       -0.000005445962082
        0.000000000000000
        0.000921175031247
        0.003942680514796
        0.010072852344423
        0.015486391865140
        0.010709580156687
        0.003396450050535
        0.000613731701178
        0.000000000000000
        0.000000000000000
        0.000000000000000
        0.001011329296291
        0.002489092611999
        0.003441593477842
        0.002566278570297
        0.001056211601557
        0.000239002166523
        0.000000000000000
        0.000000000000000
        0.000000000000000
        0.000000000000000
        0.000000000000000
        0.000499973594718
        0.000404442456916
        0.000000000000000
        0.000000000000000
        0.000000000000000
        0.000000000000000
        0.000000000000000
        0.000000000000000
        0.000000000000000
        0.000000000000000
        0.000000000000000
        0.000000000000000
        0.000000000000000
        0.000000000000000
        0.000000000000000
        0.000000000000000
        0.000155623472670
        0.000147611336491
       -0.000125835593977
       -0.000265204995604
        0.000000000000000
        0.000000000000000
        0.000000000000000
        0.000000000000000
        0.000333610901841
        0.001081287027440
        0.001759399976868
        0.000928613093963
       -0.000180944765415
       -0.000339108930417
        0.000000000000000
        0.000000000000000
        0.000000000000000
        0.000932811824505
        0.003406919631382
        0.007514838517401
        0.007115625204342
        0.002580046163228
        0.000254835860190
       -0.000084800458356
        0.000000000000000
        0.000000000000000
        0.001337473817997
        0.005356673936392
        0.013822144619299
        0.018484295513845
        0.009395364640789
        0.002338583366688
        0.000309741027799
        0.000000000000000
        0.000000000000000
        0.000960026630114
        0.004113972816736
        0.010525691682450
        0.016147920611824
        0.011123488983971
        0.003537047596039
        0.000644903397781
        0.000000000000000
        0.000000000000000
        0.000000000000000
        0.001713689157814
        0.004581111662601
        0.006831110324055
        0.005219324070046
        0.002055070279038
        0.000430672796055
        0.000000000000000
        0.000000000000000
        0.000000000000000
        0.000000000000000
        0.001158754388754
        0.001805758154197
        0.001453404801876
        0.000615410256908
        0.000000000000000
        0.000000000000000
        0.000000000000000
        0.000000000000000
        0.000000000000000
        0.000000000000000
        0.000000000000000
        0.000000000000000
        0.000000000000000
        0.000000000000000
        0.000000000000000
        0.000000000000000
        0.000000000000000
        0.000000000000000
        0.000000000000000
        0.000000000000000
        0.000000000000000
        0.000000000000000
        0.000000000000000
        0.000000000000000
        0.000000000000000
        0.000000000000000
        0.000000000000000
        0.000120318757999
        0.000084518143950
        0.000000000000000
        0.000000000000000
        0.000000000000000
        0.000000000000000
        0.000000000000000
        0.000000000000000
        0.000387964765850
        0.000704508484740
        0.000631596026293
        0.000269250849613
        0.000000000000000
        0.000000000000000
        0.000000000000000
        0.000000000000000
        0.000316229591148
        0.001063096075973
        0.002084270050251
        0.002240569493727
        0.001235093050673
        0.000372196042030
        0.000000000000000
        0.000000000000000
        0.000000000000000
        0.000403057860033
        0.001513586155330
        0.003263919749808
        0.004036411005736
        0.002643888926767
        0.000959562022895
        0.000203827840089
        0.000000000000000
        0.000000000000000
        0.000000000000000
        0.001083409718404
        0.002660700307585
        0.003673984043377
        0.002732091226192
        0.001123415501708
        0.000256084229653
        0.000000000000000
        0.000000000000000
        0.000000000000000
        0.000000000000000
        0.001191915866394
        0.001853685298425
        0.001489380291111
        0.000630720001867
        0.000000000000000
        0.000000000000000
        0.000000000000000
        0.000000000000000
        0.000000000000000
        0.000000000000000
        0.000529193312757
        0.000457584338214
        0.000000000000000
        0.000000000000000
        0.000000000000000
        0.000000000000000
        0.000000000000000
        0.000000000000000
        0.000000000000000
        0.000000000000000
        0.000000000000000
        0.000000000000000
        0.000000000000000
        0.000000000000000
        0.000000000000000
        0.000000000000000
        0.000000000000000
        0.000000000000000
        0.000000000000000
        0.000000000000000
        0.000000000000000
        0.000000000000000
        0.000000000000000
        0.000000000000000
        0.000000000000000
        0.000000000000000
        0.000000000000000
        0.000000000000000
        0.000000000000000
        0.000000000000000
        0.000000000000000
        0.000000000000000
        0.000000000000000
        0.000000000000000
        0.000000000000000
        0.000000000000000
        0.000000000000000
        0.000000000000000
        0.000000000000000
        0.000000000000000
        0.000000000000000
        0.000000000000000
        0.000000000000000
        0.000000000000000
        0.000358757570906
        0.000391555903484
        0.000000000000000
        0.000000000000000
        0.000000000000000
        0.000000000000000
        0.000000000000000
        0.000000000000000
        0.000000000000000
        0.000489035261005
        0.000695509504142
        0.000443621731993
        0.000000000000000
        0.000000000000000
        0.000000000000000
        0.000000000000000
        0.000000000000000
        0.000000000000000
        0.000000000000000
        0.000541701003901
        0.000437607438793
        0.000000000000000
        0.000000000000000
        0.000000000000000
        0.000000000000000
        0.000000000000000
        0.000000000000000
        0.000000000000000
        0.000000000000000
        0.000000000000000
        0.000000000000000
        0.000000000000000
        0.000000000000000
        0.000000000000000
        0.000000000000000
        0.000000000000000
        0.000000000000000
        0.000000000000000
        0.000000000000000
        0.000000000000000
        0.000000000000000
        0.000000000000000
        0.000000000000000
        0.000000000000000
        0.000000000000000
        0.000000000000000
        0.000000000000000
        0.000000000000000
        0.000000000000000
        0.000000000000000
        0.000000000000000
END_DATAGRID_3D
END_BLOCK_DATAGRID_3D
