ATOMS
         C    7.558905    7.558905    7.558905
         H    8.755769    8.755769    8.755769
         H    6.362040    6.362040    8.755769
         H    8.755769    6.362040    6.362040
         H    6.362040    8.755769    6.362040
BEGIN_BLOCK_DATAGRID_3D
units: coords = b, function = sqrt(b^-3)
BEGIN_DATAGRID_3D_function
      9      9      9
0.0 0.0 0.0
   15.117809    0.000000    0.000000
    0.000000   15.117809    0.000000
    0.000000    0.000000   15.117809
        0.000000000000000
        0.000000000000000
        0.000000000000000
        0.000000000000000
        0.000000000000000
        0.000000000000000
        0.000000000000000
        0.000000000000000
        0.000000000000000
        0.000000000000000
        0.000000000000000
        0.000000000000000
        0.000000000000000
        0.000000000000000
        0.000000000000000
        0.000000000000000
        0.000000000000000
        0.000000000000000
        0.000000000000000
        0.000000000000000
        0.000000000000000
        0.000000000000000
        0.000000000000000
        0.000000000000000
        0.000000000000000
        0.000000000000000
        0.000000000000000
        0.000000000000000
        0.000000000000000
        0.000000000000000
        0.000000000000000
       -0.000070293302242
        0.000026636738653
        0.000000000000000
        0.000000000000000
        0.000000000000000
        0.000000000000000
        0.000000000000000
        0.000000000000000
       -0.000153817494485
       -0.000065039113651
        0.000068555844204
        0.000000000000000
        0.000000000000000
        0.000000000000000
        0.000000000000000
        0.000000000000000
        0.000000000000000
       -0.000099908944598
       -0.000017167242730
        0.000000000000000
        0.000000000000000
        0.000000000000000
        0.000000000000000
        0.000000000000000
        0.000000000000000
        0.000000000000000
        0.000000000000000
        0.000000000000000
        0.000000000000000
        0.000000000000000
        0.000000000000000
        0.000000000000000
        0.000000000000000
        0.000000000000000
        0.000000000000000
        0.000000000000000
        0.000000000000000
        0.000000000000000
        0.000000000000000
        0.000000000000000
        0.000000000000000
        0.000000000000000
        0.000000000000000
        0.000000000000000
        0.000000000000000
        0.000000000000000
        0.000000000000000
        0.000000000000000
        0.000000000000000
        0.000000000000000
        0.000000000000000
        0.000000000000000
        0.000000000000000
        0.000000000000000
        0.000000000000000
        0.000000000000000
        0.000000000000000
        0.000000000000000
        0.000000000000000
        0.000000000000000
        0.000000000000000
        0.000000000000000
        0.000000000000000
       -0.000151599734686
       -0.000052282143549
        0.000000000000000
        0.000000000000000
        0.000000000000000
        0.000000000000000
        0.000000000000000
        0.000000000000000
       -0.000543456263766
       -0.000458347216695
       -0.000007192751402
        0.000154353583550
        0.000000000000000
        0.000000000000000
        0.000000000000000
        0.000000000000000
       -0.000710038774600
       -0.001163114585882
       -0.000655808691196
        0.000313357138724
        0.000508476806599
        0.000232045458552
        0.000000000000000
        0.000000000000000
       -0.000343348671998
       -0.000990249277404
       -0.001315872178529
       -0.000378458513146
        0.000782838389088
        0.000793744249258
        0.000305604622403
        0.000000000000000
        0.000000000000000
       -0.000270557620549
       -0.000688858822242
       -0.000753363030908
        0.000101468110584
        0.000816843538910
        0.000598413163538
        0.000000000000000
        0.000000000000000
        0.000000000000000
        0.000000000000000
       -0.000241478807216
       -0.000195781620283
        0.000225524825762
        0.000414980548624
        0.000000000000000
        0.000000000000000
        0.000000000000000
        0.000000000000000
        0.000000000000000
        0.000000000000000
       -0.000002071858143
        0.000093931678265
        0.000000000000000
        0.000000000000000
        0.000000000000000
        0.000000000000000
        0.000000000000000
        0.000000000000000
        0.000000000000000
        0.000000000000000
        0.000000000000000
        0.000000000000000
        0.000000000000000
        0.000000000000000
        0.000000000000000
        0.000000000000000
        0.000000000000000
        0.000000000000000
        0.000000000000000
        0.000000000000000
        0.000000000000000
        0.000000000000000
        0.000000000000000
        0.000000000000000
        0.000000000000000
        0.000000000000000
        0.000000000000000
       -0.000721792406930
       -0.000716090316904
       -0.000200662115714
        0.000072020676121
        0.000000000000000
        0.000000000000000
        0.000000000000000
        0.000000000000000
       -0.001445259634659
       -0.002760168184122
       -0.002218108531534
        0.000033359710084
        0.000681021632968
        0.000331170116598
        0.000000000000000
        0.000000000000000
       -0.001019568472892
       -0.003482820308370
       -0.006026033118925
       -0.003773561365558
        0.002206245081589
        0.002383071142396
        0.000929346122965
        0.000000000000000
        0.000000000000000
       -0.001433550024917
       -0.004559907364613
       -0.007603717268596
       -0.001736208880096
        0.005550812315945
        0.004007305824673
        0.001361358157343
        0.000000000000000
        0.000000000000000
       -0.001018694497018
       -0.002925560540823
       -0.003892405486492
        0.001588032507800
        0.004898325603012
        0.003201937110050
        0.000995516152929
        0.000000000000000
        0.000000000000000
       -0.000380933875648
       -0.000940177960927
       -0.000678362851947
        0.001489263333669
        0.002395068568514
        0.001368651645243
        0.000000000000000
        0.000000000000000
        0.000000000000000
        0.000000000000000
       -0.000139349417838
        0.000049011567010
        0.000558466197549
        0.000649909296651
        0.000000000000000
        0.000000000000000
        0.000000000000000
        0.000000000000000
        0.000000000000000
        0.000000000000000
        0.000000000000000
        0.000000000000000
        0.000000000000000
        0.000000000000000
        0.000000000000000
        0.000000000000000
        0.000000000000000
        0.000000000000000
        0.000000000000000
        0.000000000000000
       -0.000294695402131
       -0.000151718249633
        0.000000000000000
        0.000000000000000
        0.000000000000000
        0.000000000000000
        0.000000000000000
       -0.001097673626607
       -0.002085988255759
       -0.001905561118254
       -0.000578351905763
        0.000147066965677
        0.000140181359825
        0.000000000000000
        0.000000000000000
       -0.001228505009826
       -0.004403997850978
       -0.008461317272832
       -0.007331137615827
       -0.000019678162264
        0.001626964183721
        0.000761710645184
        0.000000000000000
        0.000000000000000
       -0.002779969853715
       -0.010337583515843
       -0.022294386812002
       -0.016553196753717
        0.009298293900089
        0.006964161852048
        0.002237310260445
        0.000414434730333
       -0.000540135975790
       -0.003485686949311
       -0.013853470930948
       -0.031515070093926
       -0.004623124381322
        0.027258625210932
        0.013252859281078
        0.003514332129208
        0.000561793959536
       -0.000404671764043
       -0.002289670180505
       -0.007771366319475
       -0.013147578651222
        0.011719486240005
        0.020673844337597
        0.010239362039479
        0.002857916594296
        0.000000000000000
        0.000000000000000
       -0.000815009760930
       -0.001988386558716
       -0.001076633677893
        0.006181919621665
        0.008108482807361
        0.004441534284154
        0.001282250835341
        0.000000000000000
        0.000000000000000
       -0.000158940535055
       -0.000240771024272
        0.000374847489187
        0.001715440917869
        0.002033350703970
        0.001119617270511
        0.000000000000000
        0.000000000000000
        0.000000000000000
        0.000000000000000
        0.000000000000000
        0.000125981442566
        0.000272298620356
        0.000000000000000
        0.000000000000000
        0.000000000000000
        0.000000000000000
        0.000000000000000
        0.000000000000000
        0.000000000000000
       -0.000479219824546
       -0.000510296177212
       -0.000202819775175
        0.000000000000000
        0.000000000000000
        0.000000000000000
        0.000000000000000
       -0.000584254762823
       -0.001906420424371
       -0.003370411491779
       -0.002962307888045
       -0.000945172059961
        0.000124621117055
        0.000156998473519
        0.000000000000000
        0.000000000000000
       -0.002090295596983
       -0.007487392742055
       -0.015868279454052
       -0.013568361425584
       -0.001057913190654
        0.001988580381835
        0.000951287937166
        0.000000000000000
       -0.000640422093191
       -0.004285711156087
       -0.018547545557984
       -0.050064636095760
       -0.036012363691424
        0.013103333528903
        0.010207538698798
        0.003039524637928
        0.000515657507081
       -0.000838718706876
       -0.004907594122304
       -0.022755268640012
       -0.061009554851380
       -0.000195309422849
        0.062091050432259
        0.023648782409096
        0.005225776517792
        0.000907417529962
       -0.000484871451121
       -0.002909384441980
       -0.010080260717678
       -0.013593079583719
        0.035903754755398
        0.051683818757333
        0.019567903987477
        0.004614475405020
        0.000701722254774
        0.000000000000000
       -0.000935344341580
       -0.002058457072343
        0.000755859523661
        0.013541212275716
        0.016443039922745
        0.007947107978844
        0.002262969944518
        0.000000000000000
        0.000000000000000
       -0.000162739305659
       -0.000160777667871
        0.000869991028698
        0.002957996240318
        0.003490887900397
        0.002026155376664
        0.000636223472896
        0.000000000000000
        0.000000000000000
        0.000000000000000
        0.000000000000000
        0.000189836951632
        0.000509938045467
        0.000497051508903
        0.000000000000000
        0.000000000000000
        0.000000000000000
        0.000000000000000
        0.000000000000000
        0.000000000000000
       -0.000429414407349
       -0.000390061432701
        0.000000000000000
        0.000000000000000
        0.000000000000000
        0.000000000000000
        0.000000000000000
       -0.000540818154658
       -0.001712682221206
       -0.002927631118474
       -0.002435270202556
       -0.000770418516255
        0.000041763179816
        0.000000000000000
        0.000000000000000
        0.000000000000000
       -0.001846070775071
       -0.006553370190757
       -0.013498467335141
       -0.009747094954911
       -0.001145181481835
        0.001254972419980
        0.000618984382284
        0.000000000000000
       -0.000554715816848
       -0.003561615189871
       -0.015122197849001
       -0.040449706826768
       -0.021030529500670
        0.006696570054238
        0.006645300447685
        0.002200099643667
        0.000000000000000
       -0.000585157568522
       -0.003709408648756
       -0.014774335344715
       -0.032142645585553
        0.004514515445296
        0.037528527075303
        0.016522583405197
        0.004139667913740
        0.000655585802319
        0.000000000000000
       -0.001980399443441
       -0.005886538742725
       -0.004606355882137
        0.025735688037993
        0.045264484798859
        0.016844588885882
        0.003987832862871
        0.000623731940609
        0.000000000000000
       -0.000561853447396
       -0.001070257921060
        0.001616993213702
        0.010859391292505
        0.014864552291382
        0.007264311961698
        0.002065640105239
        0.000000000000000
        0.000000000000000
        0.000000000000000
       -0.000019675766679
        0.000844560176006
        0.002619101248137
        0.003178537368598
        0.001885766962745
        0.000602903544403
        0.000000000000000
        0.000000000000000
        0.000000000000000
        0.000000000000000
        0.000000000000000
        0.000411724845954
        0.000460435367706
        0.000000000000000
        0.000000000000000
        0.000000000000000
        0.000000000000000
        0.000000000000000
        0.000000000000000
        0.000000000000000
        0.000000000000000
        0.000000000000000
        0.000000000000000
        0.000000000000000
        0.000000000000000
        0.000000000000000
        0.000000000000000
       -0.000798554574337
       -0.001391458939538
       -0.001107982868876
       -0.000353808993590
        0.000000000000000
        0.000000000000000
        0.000000000000000
        0.000000000000000
       -0.000853861075958
       -0.002894806330139
       -0.005078303590441
       -0.003478897489248
       -0.000482919816637
        0.000443670275808
        0.000000000000000
        0.000000000000000
        0.000000000000000
       -0.001642386038983
       -0.005616196208649
       -0.010682695526542
       -0.005153207841046
        0.002064975722515
        0.002494569594084
        0.000905719064696
        0.000000000000000
        0.000000000000000
       -0.001592089913645
       -0.004985942449784
       -0.007508702661795
        0.001709059730228
        0.009834314416146
        0.005928382536007
        0.001852899724341
        0.000000000000000
        0.000000000000000
       -0.000770789984329
       -0.001991435463669
       -0.000818290940204
        0.007301815042236
        0.012638629047529
        0.006508205003023
        0.001898004627459
        0.000000000000000
        0.000000000000000
        0.000000000000000
       -0.000298233173578
        0.000879392934781
        0.004195007545395
        0.005831192195965
        0.003310890501577
        0.000980215096918
        0.000000000000000
        0.000000000000000
        0.000000000000000
        0.000000000000000
        0.000429555583788
        0.001263001579922
        0.001568404413967
        0.000903218822324
        0.000000000000000
        0.000000000000000
        0.000000000000000
        0.000000000000000
        0.000000000000000
        0.000000000000000
        0.000000000000000
        0.000000000000000
        0.000000000000000
        0.000000000000000
        0.000000000000000
        0.000000000000000
        0.000000000000000
        0.000000000000000
        0.000000000000000
        0.000000000000000
        0.000000000000000
        0.000000000000000
        0.000000000000000
        0.000000000000000
        0.000000000000000
        0.000000000000000
        0.000000000000000
       -0.000366444525347
       -0.000298644158396
        0.000000000000000
        0.000000000000000
        0.000000000000000
        0.000000000000000
        0.000000000000000
        0.000000000000000
       -0.000696425184959
       -0.001146665752245
       -0.000775041497089
       -0.000118880245563
        0.000000000000000
        0.000000000000000
        0.000000000000000
        0.000000000000000
       -0.000429201069164
       -0.001264594423237
       -0.001799420598378
       -0.000821297395272
        0.000446088648805
        0.000562967286789
        0.000000000000000
        0.000000000000000
        0.000000000000000
       -0.000403645396484
       -0.001076948814838
       -0.001184548284553
        0.000374146865419
        0.001762877451348
        0.001357032244461
        0.000487617324012
        0.000000000000000
        0.000000000000000
        0.000000000000000
       -0.000407310618686
       -0.000078313493870
        0.001369348821079
        0.002286828324111
        0.001524357121823
        0.000511039445676
        0.000000000000000
        0.000000000000000
        0.000000000000000
        0.000000000000000
        0.000251219440625
        0.001005258479713
        0.001374935049656
        0.000820885914895
        0.000000000000000
        0.000000000000000
        0.000000000000000
        0.000000000000000
        0.000000000000000
        0.000000000000000
        0.000355724836535
        0.000427336787279
        0.000000000000000
        0.000000000000000
        0.000000000000000
        0.000000000000000
        0.000000000000000
        0.000000000000000
        0.000000000000000
        0.000000000000000
        0.000000000000000
        0.000000000000000
        0.000000000000000
        0.000000000000000
        0.000000000000000
        0.000000000000000
        0.000000000000000
        0.000000000000000
        0.000000000000000
        0.000000000000000
        0.000000000000000
        0.000000000000000
        0.000000000000000
        0.000000000000000
        0.000000000000000
        0.000000000000000
        0.000000000000000
        0.000000000000000
        0.000000000000000
        0.000000000000000
        0.000000000000000
        0.000000000000000
        0.000000000000000
        0.000000000000000
        0.000000000000000
        0.000000000000000
        0.000000000000000
        0.000000000000000
        0.000000000000000
        0.000000000000000
        0.000000000000000
        0.000000000000000
        0.000000000000000
        0.000000000000000
       -0.000203524020185
       -0.000100595569615
        0.000000000000000
        0.000000000000000
        0.000000000000000
        0.000000000000000
        0.000000000000000
        0.000000000000000
        0.000000000000000
       -0.000135565378429
        0.000064680981906
        0.000225675889524
        0.000000000000000
        0.000000000000000
        0.000000000000000
        0.000000000000000
        0.000000000000000
        0.000000000000000
        0.000000000000000
        0.000187322746066
        0.000282080379420
        0.000000000000000
        0.000000000000000
        0.000000000000000
        0.000000000000000
        0.000000000000000
        0.000000000000000
        0.000000000000000
        0.000000000000000
        0.000000000000000
        0.000000000000000
        0.000000000000000
        0.000000000000000
        0.000000000000000
        0.000000000000000
        0.000000000000000
        0.000000000000000
        0.000000000000000
        0.000000000000000
        0.000000000000000
        0.000000000000000
        0.000000000000000
        0.000000000000000
        0.000000000000000
        0.000000000000000
        0.000000000000000
        0.000000000000000
        0.000000000000000
        0.000000000000000
        0.000000000000000
        0.000000000000000
END_DATAGRID_3D
END_BLOCK_DATAGRID_3D
