ATOMS
         C    7.558905    7.558905    7.558905
         H    8.755769    8.755769    8.755769
         H    6.362040    6.362040    8.755769
         H    8.755769    6.362040    6.362040
         H    6.362040    8.755769    6.362040
BEGIN_BLOCK_DATAGRID_3D
units: coords = b, function = 1/hbar/H*b^-2
BEGIN_DATAGRID_3D_function
      9      9      9
0.0 0.0 0.0
   15.117809    0.000000    0.000000
    0.000000   15.117809    0.000000
    0.000000    0.000000   15.117809
        0.000000000000000
        0.000000000000000
        0.000000000000000
        0.000000000000000
        0.000000000000000
        0.000000000000000
        0.000000000000000
        0.000000000000000
        0.000000000000000
        0.000000000000000
        0.000000000000000
        0.000000000000000
        0.000000000000000
        0.000000000000000
        0.000000000000000
        0.000000000000000
        0.000000000000000
        0.000000000000000
        0.000000000000000
        0.000000000000000
        0.000000000000000
        0.000000000000000
        0.000000000000000
        0.000000000000000
        0.000000000000000
        0.000000000000000
        0.000000000000000
        0.000000000000000
        0.000000000000000
        0.000000000000000
        0.000000000000000
       -0.000000001444287
        0.000000000948321
        0.000000000000000
        0.000000000000000
        0.000000000000000
        0.000000000000000
        0.000000000000000
        0.000000000000000
       -0.000000000896021
       -0.000000000000471
        0.000000000892068
        0.000000000000000
        0.000000000000000
        0.000000000000000
        0.000000000000000
        0.000000000000000
        0.000000000000000
       -0.000000000950440
        0.000000001438964
        0.000000000000000
        0.000000000000000
        0.000000000000000
        0.000000000000000
        0.000000000000000
        0.000000000000000
        0.000000000000000
        0.000000000000000
        0.000000000000000
        0.000000000000000
        0.000000000000000
        0.000000000000000
        0.000000000000000
        0.000000000000000
        0.000000000000000
        0.000000000000000
        0.000000000000000
        0.000000000000000
        0.000000000000000
        0.000000000000000
        0.000000000000000
        0.000000000000000
        0.000000000000000
        0.000000000000000
        0.000000000000000
        0.000000000000000
        0.000000000000000
        0.000000000000000
        0.000000000000000
        0.000000000000000
        0.000000000000000
        0.000000000000000
        0.000000000000000
        0.000000000000000
        0.000000000000000
        0.000000000000000
        0.000000000000000
        0.000000000000000
        0.000000000000000
        0.000000000000000
        0.000000000000000
        0.000000000000000
        0.000000000000000
        0.000000000000000
       -0.000000000934954
        0.000000000862599
        0.000000000000000
        0.000000000000000
        0.000000000000000
        0.000000000000000
        0.000000000000000
        0.000000000000000
       -0.000000002630396
       -0.000000000320963
        0.000000000008066
        0.000000001862026
        0.000000000000000
        0.000000000000000
        0.000000000000000
        0.000000000000000
       -0.000000001884334
       -0.000000005679586
       -0.000000013455591
        0.000000009559137
        0.000000005992709
       -0.000000000252100
        0.000000000000000
        0.000000000000000
        0.000000000199728
       -0.000000003452566
       -0.000000024376708
       -0.000000000020222
        0.000000024433276
        0.000000003470392
       -0.000000000196788
        0.000000000000000
        0.000000000000000
        0.000000000252827
       -0.000000005961686
       -0.000000009566372
        0.000000013468297
        0.000000005692229
        0.000000001889500
        0.000000000000000
        0.000000000000000
        0.000000000000000
        0.000000000000000
       -0.000000001861901
        0.000000000000653
        0.000000000321776
        0.000000002633354
        0.000000000000000
        0.000000000000000
        0.000000000000000
        0.000000000000000
        0.000000000000000
        0.000000000000000
       -0.000000000863066
        0.000000000936629
        0.000000000000000
        0.000000000000000
        0.000000000000000
        0.000000000000000
        0.000000000000000
        0.000000000000000
        0.000000000000000
        0.000000000000000
        0.000000000000000
        0.000000000000000
        0.000000000000000
        0.000000000000000
        0.000000000000000
        0.000000000000000
        0.000000000000000
        0.000000000000000
        0.000000000000000
        0.000000000000000
        0.000000000000000
        0.000000000000000
        0.000000000000000
        0.000000000000000
        0.000000000000000
        0.000000000000000
        0.000000000000000
       -0.000000001830330
       -0.000000001413812
        0.000000000993699
        0.000000001102685
        0.000000000000000
        0.000000000000000
        0.000000000000000
        0.000000000000000
       -0.000000003677112
        0.000000001000820
        0.000000010332210
       -0.000000011226602
       -0.000000004941699
        0.000000000718392
        0.000000000000000
        0.000000000000000
       -0.000000000069197
       -0.000000006456734
        0.000000140404852
        0.000000239918299
       -0.000000198076414
       -0.000000140527705
        0.000000007457151
        0.000000000000000
        0.000000000000000
       -0.000000004890450
        0.000000072801371
        0.000000565811809
        0.000000000127242
       -0.000000567436212
       -0.000000073265982
        0.000000004933687
        0.000000000000000
        0.000000000000000
       -0.000000007409155
        0.000000139844542
        0.000000199109036
       -0.000000239917940
       -0.000000141070042
        0.000000006435455
        0.000000000076244
        0.000000000000000
        0.000000000000000
       -0.000000000715153
        0.000000004901761
        0.000000011383003
       -0.000000010276387
       -0.000000001059434
        0.000000003683078
        0.000000000000000
        0.000000000000000
        0.000000000000000
        0.000000000000000
       -0.000000001104993
       -0.000000000988991
        0.000000001416442
        0.000000001829439
        0.000000000000000
        0.000000000000000
        0.000000000000000
        0.000000000000000
        0.000000000000000
        0.000000000000000
        0.000000000000000
        0.000000000000000
        0.000000000000000
        0.000000000000000
        0.000000000000000
        0.000000000000000
        0.000000000000000
        0.000000000000000
        0.000000000000000
        0.000000000000000
       -0.000000000554419
        0.000000000006053
        0.000000000000000
        0.000000000000000
        0.000000000000000
        0.000000000000000
        0.000000000000000
       -0.000000001208485
       -0.000000002997766
        0.000000000907931
       -0.000000000811804
        0.000000001530500
        0.000000000000752
        0.000000000000000
        0.000000000000000
       -0.000000000632910
       -0.000000001458898
        0.000000033271747
       -0.000000019176647
       -0.000000065550151
       -0.000000006518453
        0.000000000580161
        0.000000000000000
        0.000000000000000
       -0.000000008828933
        0.000000128975916
        0.000000409644055
       -0.000000693916666
       -0.000001298716235
       -0.000000107658019
        0.000000006450604
       -0.000000000032811
       -0.000000000203371
       -0.000000020942513
        0.000000472172962
        0.000001593202096
        0.000000010401328
       -0.000001603191838
       -0.000000474626738
        0.000000021070453
        0.000000000207361
        0.000000000033073
       -0.000000006382667
        0.000000107088601
        0.000001292155181
        0.000000697578039
       -0.000000410948497
       -0.000000129750223
        0.000000008877965
        0.000000000000000
        0.000000000000000
       -0.000000000569499
        0.000000006523658
        0.000000065281815
        0.000000019490664
       -0.000000033395223
        0.000000001410068
        0.000000000638749
        0.000000000000000
        0.000000000000000
       -0.000000000001090
       -0.000000001526764
        0.000000000829132
       -0.000000000882789
        0.000000002995796
        0.000000001209269
        0.000000000000000
        0.000000000000000
        0.000000000000000
        0.000000000000000
        0.000000000000000
       -0.000000000005334
        0.000000000553392
        0.000000000000000
        0.000000000000000
        0.000000000000000
        0.000000000000000
        0.000000000000000
        0.000000000000000
        0.000000000000000
        0.000000000005334
       -0.000000001641725
        0.000000000006053
        0.000000000000000
        0.000000000000000
        0.000000000000000
        0.000000000000000
        0.000000000001090
       -0.000000002158012
        0.000000000980337
       -0.000000000634956
        0.000000000989173
       -0.000000002151440
        0.000000000000752
        0.000000000000000
        0.000000000000000
       -0.000000001506047
        0.000000011682682
       -0.000000024040117
       -0.000000065155168
       -0.000000024436168
        0.000000011805958
       -0.000000001509258
        0.000000000000000
       -0.000000000033073
       -0.000000013374729
        0.000000223736859
       -0.000000676110900
       -0.000001694169684
       -0.000000682769938
        0.000000224873921
       -0.000000013404610
       -0.000000000032811
       -0.000000000000000
       -0.000000000000000
        0.000000000000000
       -0.000000000000000
       -0.000000000000000
       -0.000000000000000
        0.000000000000000
        0.000000000000000
        0.000000000000000
        0.000000000033073
        0.000000013374729
       -0.000000223736859
        0.000000676110900
        0.000001694169684
        0.000000682769938
       -0.000000224873921
        0.000000013404610
        0.000000000032811
        0.000000000000000
        0.000000001506047
       -0.000000011682682
        0.000000024040117
        0.000000065155168
        0.000000024436168
       -0.000000011805958
        0.000000001509258
        0.000000000000000
        0.000000000000000
       -0.000000000001090
        0.000000002158012
       -0.000000000980337
        0.000000000634956
       -0.000000000989173
        0.000000002151440
       -0.000000000000752
        0.000000000000000
        0.000000000000000
        0.000000000000000
        0.000000000000000
       -0.000000000005334
        0.000000001641725
       -0.000000000006053
        0.000000000000000
        0.000000000000000
        0.000000000000000
        0.000000000000000
        0.000000000000000
        0.000000000000000
        0.000000000005334
       -0.000000000553392
        0.000000000000000
        0.000000000000000
        0.000000000000000
        0.000000000000000
        0.000000000000000
        0.000000000001090
        0.000000001526764
       -0.000000000829132
        0.000000000882789
       -0.000000002995796
       -0.000000001209269
        0.000000000000000
        0.000000000000000
        0.000000000000000
        0.000000000569499
       -0.000000006523658
       -0.000000065281815
       -0.000000019490664
        0.000000033395223
       -0.000000001410068
       -0.000000000638749
        0.000000000000000
       -0.000000000033073
        0.000000006382667
       -0.000000107088601
       -0.000001292155181
       -0.000000697578039
        0.000000410948497
        0.000000129750223
       -0.000000008877965
        0.000000000000000
        0.000000000203371
        0.000000020942513
       -0.000000472172962
       -0.000001593202096
       -0.000000010401328
        0.000001603191838
        0.000000474626738
       -0.000000021070453
       -0.000000000207361
        0.000000000000000
        0.000000008828933
       -0.000000128975916
       -0.000000409644055
        0.000000693916666
        0.000001298716235
        0.000000107658019
       -0.000000006450604
        0.000000000032811
        0.000000000000000
        0.000000000632910
        0.000000001458898
       -0.000000033271747
        0.000000019176647
        0.000000065550151
        0.000000006518453
       -0.000000000580161
        0.000000000000000
        0.000000000000000
        0.000000000000000
        0.000000001208485
        0.000000002997766
       -0.000000000907931
        0.000000000811804
       -0.000000001530500
       -0.000000000000752
        0.000000000000000
        0.000000000000000
        0.000000000000000
        0.000000000000000
        0.000000000000000
        0.000000000554419
       -0.000000000006053
        0.000000000000000
        0.000000000000000
        0.000000000000000
        0.000000000000000
        0.000000000000000
        0.000000000000000
        0.000000000000000
        0.000000000000000
        0.000000000000000
        0.000000000000000
        0.000000000000000
        0.000000000000000
        0.000000000000000
        0.000000000000000
        0.000000001104993
        0.000000000988991
       -0.000000001416442
       -0.000000001829439
        0.000000000000000
        0.000000000000000
        0.000000000000000
        0.000000000000000
        0.000000000715153
       -0.000000004901761
       -0.000000011383003
        0.000000010276387
        0.000000001059434
       -0.000000003683078
        0.000000000000000
        0.000000000000000
        0.000000000000000
        0.000000007409155
       -0.000000139844542
       -0.000000199109036
        0.000000239917940
        0.000000141070042
       -0.000000006435455
       -0.000000000076244
        0.000000000000000
        0.000000000000000
        0.000000004890450
       -0.000000072801371
       -0.000000565811809
       -0.000000000127242
        0.000000567436212
        0.000000073265982
       -0.000000004933687
        0.000000000000000
        0.000000000000000
        0.000000000069197
        0.000000006456734
       -0.000000140404852
       -0.000000239918299
        0.000000198076414
        0.000000140527705
       -0.000000007457151
        0.000000000000000
        0.000000000000000
        0.000000000000000
        0.000000003677112
       -0.000000001000820
       -0.000000010332210
        0.000000011226602
        0.000000004941699
       -0.000000000718392
        0.000000000000000
        0.000000000000000
        0.000000000000000
        0.000000000000000
        0.000000001830330
        0.000000001413812
       -0.000000000993699
       -0.000000001102685
        0.000000000000000
        0.000000000000000
        0.000000000000000
        0.000000000000000
        0.000000000000000
        0.000000000000000
        0.000000000000000
        0.000000000000000
        0.000000000000000
        0.000000000000000
        0.000000000000000
        0.000000000000000
        0.000000000000000
        0.000000000000000
        0.000000000000000
        0.000000000000000
        0.000000000000000
        0.000000000000000
        0.000000000000000
        0.000000000000000
        0.000000000000000
        0.000000000000000
        0.000000000000000
        0.000000000863066
       -0.000000000936629
        0.000000000000000
        0.000000000000000
        0.000000000000000
        0.000000000000000
        0.000000000000000
        0.000000000000000
        0.000000001861901
       -0.000000000000653
       -0.000000000321776
       -0.000000002633354
        0.000000000000000
        0.000000000000000
        0.000000000000000
        0.000000000000000
       -0.000000000252827
        0.000000005961686
        0.000000009566372
       -0.000000013468297
       -0.000000005692229
       -0.000000001889500
        0.000000000000000
        0.000000000000000
        0.000000000000000
       -0.000000000199728
        0.000000003452566
        0.000000024376708
        0.000000000020222
       -0.000000024433276
       -0.000000003470392
        0.000000000196788
        0.000000000000000
        0.000000000000000
        0.000000000000000
        0.000000001884334
        0.000000005679586
        0.000000013455591
       -0.000000009559137
       -0.000000005992709
        0.000000000252100
        0.000000000000000
        0.000000000000000
        0.000000000000000
        0.000000000000000
        0.000000002630396
        0.000000000320963
       -0.000000000008066
       -0.000000001862026
        0.000000000000000
        0.000000000000000
        0.000000000000000
        0.000000000000000
        0.000000000000000
        0.000000000000000
        0.000000000934954
       -0.000000000862599
        0.000000000000000
        0.000000000000000
        0.000000000000000
        0.000000000000000
        0.000000000000000
        0.000000000000000
        0.000000000000000
        0.000000000000000
        0.000000000000000
        0.000000000000000
        0.000000000000000
        0.000000000000000
        0.000000000000000
        0.000000000000000
        0.000000000000000
        0.000000000000000
        0.000000000000000
        0.000000000000000
        0.000000000000000
        0.000000000000000
        0.000000000000000
        0.000000000000000
        0.000000000000000
        0.000000000000000
        0.000000000000000
        0.000000000000000
        0.000000000000000
        0.000000000000000
        0.000000000000000
        0.000000000000000
        0.000000000000000
        0.000000000000000
        0.000000000000000
        0.000000000000000
        0.000000000000000
        0.000000000000000
        0.000000000000000
        0.000000000000000
        0.000000000000000
        0.000000000000000
        0.000000000000000
        0.000000000000000
        0.000000000950440
       -0.000000001438964
        0.000000000000000
        0.000000000000000
        0.000000000000000
        0.000000000000000
        0.000000000000000
        0.000000000000000
        0.000000000000000
        0.000000000896021
        0.000000000000471
       -0.000000000892068
        0.000000000000000
        0.000000000000000
        0.000000000000000
        0.000000000000000
        0.000000000000000
        0.000000000000000
        0.000000000000000
        0.000000001444287
       -0.000000000948321
        0.000000000000000
        0.000000000000000
        0.000000000000000
        0.000000000000000
        0.000000000000000
        0.000000000000000
        0.000000000000000
        0.000000000000000
        0.000000000000000
        0.000000000000000
        0.000000000000000
        0.000000000000000
        0.000000000000000
        0.000000000000000
        0.000000000000000
        0.000000000000000
        0.000000000000000
        0.000000000000000
        0.000000000000000
        0.000000000000000
        0.000000000000000
        0.000000000000000
        0.000000000000000
        0.000000000000000
        0.000000000000000
        0.000000000000000
        0.000000000000000
        0.000000000000000
        0.000000000000000
        0.000000000000000
END_DATAGRID_3D
END_BLOCK_DATAGRID_3D
