ATOMS
         C    7.558905    7.558905    7.558905
         H    8.755769    8.755769    8.755769
         H    6.362040    6.362040    8.755769
         H    8.755769    6.362040    6.362040
         H    6.362040    8.755769    6.362040
BEGIN_BLOCK_DATAGRID_3D
units: coords = b, function = sqrt(b^-3)
BEGIN_DATAGRID_3D_function
      9      9      9
0.0 0.0 0.0
   15.117809    0.000000    0.000000
    0.000000   15.117809    0.000000
    0.000000    0.000000   15.117809
        0.000000000000000
        0.000000000000000
        0.000000000000000
        0.000000000000000
        0.000000000000000
        0.000000000000000
        0.000000000000000
        0.000000000000000
        0.000000000000000
        0.000000000000000
        0.000000000000000
        0.000000000000000
        0.000000000000000
        0.000000000000000
        0.000000000000000
        0.000000000000000
        0.000000000000000
        0.000000000000000
        0.000000000000000
        0.000000000000000
        0.000000000000000
        0.000000000000000
        0.000000000000000
        0.000000000000000
        0.000000000000000
        0.000000000000000
        0.000000000000000
        0.000000000000000
        0.000000000000000
        0.000000000000000
        0.000000000000000
       -0.001140067815355
       -0.001102066687081
        0.000000000000000
        0.000000000000000
        0.000000000000000
        0.000000000000000
        0.000000000000000
        0.000000000000000
       -0.000683240604448
       -0.001329897726840
       -0.001100559489334
        0.000000000000000
        0.000000000000000
        0.000000000000000
        0.000000000000000
        0.000000000000000
        0.000000000000000
       -0.000418555519413
       -0.000644068759385
        0.000000000000000
        0.000000000000000
        0.000000000000000
        0.000000000000000
        0.000000000000000
        0.000000000000000
        0.000000000000000
        0.000000000000000
        0.000000000000000
        0.000000000000000
        0.000000000000000
        0.000000000000000
        0.000000000000000
        0.000000000000000
        0.000000000000000
        0.000000000000000
        0.000000000000000
        0.000000000000000
        0.000000000000000
        0.000000000000000
        0.000000000000000
        0.000000000000000
        0.000000000000000
        0.000000000000000
        0.000000000000000
        0.000000000000000
        0.000000000000000
        0.000000000000000
        0.000000000000000
        0.000000000000000
        0.000000000000000
        0.000000000000000
        0.000000000000000
        0.000000000000000
        0.000000000000000
        0.000000000000000
        0.000000000000000
        0.000000000000000
        0.000000000000000
        0.000000000000000
        0.000000000000000
        0.000000000000000
        0.000000000000000
        0.000000000000000
       -0.001194366025922
       -0.001198767138902
        0.000000000000000
        0.000000000000000
        0.000000000000000
        0.000000000000000
        0.000000000000000
        0.000000000000000
       -0.002040531616830
       -0.004036643529154
       -0.004028772852609
       -0.002034643039798
        0.000000000000000
        0.000000000000000
        0.000000000000000
        0.000000000000000
       -0.001094878851974
       -0.004022572394898
       -0.007668198051562
       -0.007471421411254
       -0.003881306359820
       -0.001117474871911
        0.000000000000000
        0.000000000000000
       -0.000104286449082
       -0.001065083750274
       -0.004047253716149
       -0.007717170793399
       -0.007256073732536
       -0.003678759675614
       -0.001064329008231
        0.000000000000000
        0.000000000000000
        0.000023768063293
       -0.000287276883433
       -0.001716343834457
       -0.003640025567502
       -0.003455140088080
       -0.001714599254191
        0.000000000000000
        0.000000000000000
        0.000000000000000
        0.000000000000000
        0.000101716977840
       -0.000144785318927
       -0.000715011443542
       -0.000772300396760
        0.000000000000000
        0.000000000000000
        0.000000000000000
        0.000000000000000
        0.000000000000000
        0.000000000000000
        0.000101572994884
        0.000021950271041
        0.000000000000000
        0.000000000000000
        0.000000000000000
        0.000000000000000
        0.000000000000000
        0.000000000000000
        0.000000000000000
        0.000000000000000
        0.000000000000000
        0.000000000000000
        0.000000000000000
        0.000000000000000
        0.000000000000000
        0.000000000000000
        0.000000000000000
        0.000000000000000
        0.000000000000000
        0.000000000000000
        0.000000000000000
        0.000000000000000
        0.000000000000000
        0.000000000000000
        0.000000000000000
        0.000000000000000
        0.000000000000000
       -0.001976396945395
       -0.003944970606148
       -0.003960769233905
       -0.002006023745428
        0.000000000000000
        0.000000000000000
        0.000000000000000
        0.000000000000000
       -0.001753762442665
       -0.007159036503741
       -0.014841198134299
       -0.015069499436461
       -0.007339912729102
       -0.001932765354840
        0.000000000000000
        0.000000000000000
       -0.000237890509110
       -0.003028327669615
       -0.014156365563166
       -0.034053858313475
       -0.034200800592192
       -0.014407431573401
       -0.003641429942193
        0.000000000000000
        0.000000000000000
        0.000162170620025
       -0.001721545650607
       -0.013028583779658
       -0.035334720434142
       -0.031416255494235
       -0.013081954081799
       -0.003358190366125
        0.000000000000000
        0.000000000000000
        0.000625295238442
        0.001174574587246
       -0.001312777943109
       -0.010413779545655
       -0.011055841866539
       -0.005470558518563
       -0.001491674506003
        0.000000000000000
        0.000000000000000
        0.000486658752074
        0.001405553697176
        0.001820788081217
        0.000008326660744
       -0.001354211315399
       -0.000955844323243
        0.000000000000000
        0.000000000000000
        0.000000000000000
        0.000000000000000
        0.000556540186364
        0.000933029492490
        0.000733548846314
        0.000238673738108
        0.000000000000000
        0.000000000000000
        0.000000000000000
        0.000000000000000
        0.000000000000000
        0.000000000000000
        0.000000000000000
        0.000000000000000
        0.000000000000000
        0.000000000000000
        0.000000000000000
        0.000000000000000
        0.000000000000000
        0.000000000000000
        0.000000000000000
        0.000000000000000
       -0.001060348850271
       -0.001039323851007
        0.000000000000000
        0.000000000000000
        0.000000000000000
        0.000000000000000
        0.000000000000000
       -0.000953786839955
       -0.003690472891080
       -0.007223742079884
       -0.007157976807195
       -0.003755723676147
       -0.001085916491396
        0.000000000000000
        0.000000000000000
       -0.000160919184183
       -0.002692885558096
       -0.013280152692350
       -0.032788695562620
       -0.033418282080523
       -0.014144692438725
       -0.003583841434714
        0.000000000000000
        0.000000000000000
        0.000410725324783
       -0.002468456539031
       -0.026706843987696
       -0.096114522355900
       -0.101586651686846
       -0.031475986219201
       -0.006369084209954
       -0.000881103825104
        0.000384641906312
        0.001899187991609
        0.003878260386422
       -0.013874573752268
       -0.093727629814187
       -0.083817274764753
       -0.027028264777475
       -0.005705721000349
       -0.000821457782139
        0.000422971557805
        0.002487266266884
        0.009166417207356
        0.019400821224635
       -0.001655007423122
       -0.014605182135928
       -0.008028865678054
       -0.002305058013986
        0.000000000000000
        0.000000000000000
        0.001543567110420
        0.005349619797151
        0.011083057495915
        0.009576142520085
        0.002752098505836
       -0.000200806095592
       -0.000286242349368
        0.000000000000000
        0.000000000000000
        0.000526974046904
        0.001708987262555
        0.003250913114976
        0.003382845239980
        0.001776678389198
        0.000502092787818
        0.000000000000000
        0.000000000000000
        0.000000000000000
        0.000000000000000
        0.000000000000000
        0.000575190353265
        0.000616842174592
        0.000000000000000
        0.000000000000000
        0.000000000000000
        0.000000000000000
        0.000000000000000
        0.000000000000000
        0.000000000000000
       -0.000566239539859
       -0.001171541090001
       -0.001005091778496
        0.000000000000000
        0.000000000000000
        0.000000000000000
        0.000000000000000
       -0.000015531771189
       -0.000731467508040
       -0.003307905536991
       -0.006798258642332
       -0.006648695500869
       -0.003446258090031
       -0.001013263502579
        0.000000000000000
        0.000000000000000
        0.000404183711206
       -0.000655585280515
       -0.010055372362648
       -0.031126886446133
       -0.029092670644951
       -0.012380508061617
       -0.003217320941905
        0.000000000000000
        0.000421949109040
        0.002194320445655
        0.005586326020068
       -0.007206002613947
       -0.082565004719575
       -0.078836384747004
       -0.025969770242327
       -0.005542726364753
       -0.000805717723677
        0.000788492403944
        0.004567965219362
        0.020866025009429
        0.055332389823435
        0.000013200595176
       -0.055121857882030
       -0.020769528111921
       -0.004524017256382
       -0.000778198122882
        0.000635614236330
        0.004499289501872
        0.020682934067444
        0.064948512393311
        0.082624174022915
        0.021329275123508
       -0.000162961752015
       -0.001086796460958
       -0.000238612509105
        0.000000000000000
        0.002408287249342
        0.009422862840338
        0.023767778629376
        0.031143299027758
        0.015440497464632
        0.003667877390642
        0.000431130943499
        0.000000000000000
        0.000000000000000
        0.000709715029196
        0.002630350975766
        0.005577162861759
        0.006800654458250
        0.004390181961306
        0.001560504942671
        0.000325508072755
        0.000000000000000
        0.000000000000000
        0.000000000000000
        0.000000000000000
        0.000828552883504
        0.001171874917713
        0.000743747265553
        0.000000000000000
        0.000000000000000
        0.000000000000000
        0.000000000000000
        0.000000000000000
        0.000000000000000
       -0.000300085510789
       -0.000511319667324
        0.000000000000000
        0.000000000000000
        0.000000000000000
        0.000000000000000
        0.000000000000000
        0.000123328835097
        0.000085563727481
       -0.000933955855805
       -0.002737913300178
       -0.002897219259089
       -0.001521094070389
        0.000000000000000
        0.000000000000000
        0.000000000000000
        0.000930252797019
        0.002495345285863
        0.002143446904713
       -0.006382555339096
       -0.008931250744887
       -0.004794106397835
       -0.001362264460365
        0.000000000000000
        0.000478793330963
        0.002956681784543
        0.011839791658225
        0.029221215168676
        0.009994363721186
       -0.009688306332998
       -0.006780313282165
       -0.002079025854679
        0.000000000000000
        0.000672921439058
        0.004794421955918
        0.022390999701090
        0.071617083531632
        0.093786799117526
        0.026310165141257
        0.000895532783132
       -0.000923801825361
       -0.000222872450643
        0.000000000000000
        0.004014583463694
        0.017366197632613
        0.051109361569854
        0.087860177432036
        0.053160104803868
        0.010578786660679
        0.000977619125195
       -0.000009376614598
        0.000000000000000
        0.001824633018883
        0.007721046788277
        0.019490254050771
        0.029617569838887
        0.020247132030226
        0.006347804751228
        0.001133237690035
        0.000000000000000
        0.000000000000000
        0.000000000000000
        0.001979395931693
        0.004817040065673
        0.006582558281607
        0.004851314363066
        0.001973523731436
        0.000441646289306
        0.000000000000000
        0.000000000000000
        0.000000000000000
        0.000000000000000
        0.000000000000000
        0.000955199610313
        0.000765167306447
        0.000000000000000
        0.000000000000000
        0.000000000000000
        0.000000000000000
        0.000000000000000
        0.000000000000000
        0.000000000000000
        0.000000000000000
        0.000000000000000
        0.000000000000000
        0.000000000000000
        0.000000000000000
        0.000000000000000
        0.000000000000000
        0.000304472342805
        0.000285476922789
       -0.000240799031345
       -0.000501917542096
        0.000000000000000
        0.000000000000000
        0.000000000000000
        0.000000000000000
        0.000660885253957
        0.002117329803573
        0.003404011305820
        0.001775091060520
       -0.000342597424569
       -0.000634299052745
        0.000000000000000
        0.000000000000000
        0.000000000000000
        0.001848524668997
        0.006670390495768
        0.014539282343738
        0.013607366726645
        0.004876689627488
        0.000475646025136
       -0.000156832303731
        0.000000000000000
        0.000000000000000
        0.002650300340523
        0.010488823210431
        0.026740990046386
        0.035351133015767
        0.017764082313916
        0.004369323410824
        0.000572000367718
        0.000000000000000
        0.000000000000000
        0.001901604343810
        0.008056488899795
        0.020366466921587
        0.030882732589743
        0.021029650541895
        0.006610543885904
        0.001190826197514
        0.000000000000000
        0.000000000000000
        0.000000000000000
        0.003354100553872
        0.008865543361948
        0.013065572702555
        0.009866917641536
        0.003840045678376
        0.000795787618045
        0.000000000000000
        0.000000000000000
        0.000000000000000
        0.000000000000000
        0.002241054881036
        0.003453930905475
        0.002747497970280
        0.001150454822136
        0.000000000000000
        0.000000000000000
        0.000000000000000
        0.000000000000000
        0.000000000000000
        0.000000000000000
        0.000000000000000
        0.000000000000000
        0.000000000000000
        0.000000000000000
        0.000000000000000
        0.000000000000000
        0.000000000000000
        0.000000000000000
        0.000000000000000
        0.000000000000000
        0.000000000000000
        0.000000000000000
        0.000000000000000
        0.000000000000000
        0.000000000000000
        0.000000000000000
        0.000000000000000
        0.000232576758654
        0.000161689690039
        0.000000000000000
        0.000000000000000
        0.000000000000000
        0.000000000000000
        0.000000000000000
        0.000000000000000
        0.000759295551329
        0.001363291734207
        0.001207761258510
        0.000509056592772
        0.000000000000000
        0.000000000000000
        0.000000000000000
        0.000000000000000
        0.000626534818708
        0.002081827873468
        0.004033301093627
        0.004284957507304
        0.002334599218190
        0.000695597971620
        0.000000000000000
        0.000000000000000
        0.000000000000000
        0.000798469707090
        0.002963967218001
        0.006316511040917
        0.007719566609317
        0.004997560192973
        0.001793006528254
        0.000376573578407
        0.000000000000000
        0.000000000000000
        0.000000000000000
        0.002120487943712
        0.005149139569492
        0.007027014253285
        0.005164758967125
        0.002099106415110
        0.000473204669821
        0.000000000000000
        0.000000000000000
        0.000000000000000
        0.000000000000000
        0.002305189552471
        0.003545603828481
        0.002815501588984
        0.001179074116505
        0.000000000000000
        0.000000000000000
        0.000000000000000
        0.000000000000000
        0.000000000000000
        0.000000000000000
        0.001011168663303
        0.000865736120417
        0.000000000000000
        0.000000000000000
        0.000000000000000
        0.000000000000000
        0.000000000000000
        0.000000000000000
        0.000000000000000
        0.000000000000000
        0.000000000000000
        0.000000000000000
        0.000000000000000
        0.000000000000000
        0.000000000000000
        0.000000000000000
        0.000000000000000
        0.000000000000000
        0.000000000000000
        0.000000000000000
        0.000000000000000
        0.000000000000000
        0.000000000000000
        0.000000000000000
        0.000000000000000
        0.000000000000000
        0.000000000000000
        0.000000000000000
        0.000000000000000
        0.000000000000000
        0.000000000000000
        0.000000000000000
        0.000000000000000
        0.000000000000000
        0.000000000000000
        0.000000000000000
        0.000000000000000
        0.000000000000000
        0.000000000000000
        0.000000000000000
        0.000000000000000
        0.000000000000000
        0.000000000000000
        0.000000000000000
        0.000693660361889
        0.000749591266652
        0.000000000000000
        0.000000000000000
        0.000000000000000
        0.000000000000000
        0.000000000000000
        0.000000000000000
        0.000000000000000
        0.000945553948093
        0.001330231554552
        0.000839214976392
        0.000000000000000
        0.000000000000000
        0.000000000000000
        0.000000000000000
        0.000000000000000
        0.000000000000000
        0.000000000000000
        0.001034918575397
        0.000827910142522
        0.000000000000000
        0.000000000000000
        0.000000000000000
        0.000000000000000
        0.000000000000000
        0.000000000000000
        0.000000000000000
        0.000000000000000
        0.000000000000000
        0.000000000000000
        0.000000000000000
        0.000000000000000
        0.000000000000000
        0.000000000000000
        0.000000000000000
        0.000000000000000
        0.000000000000000
        0.000000000000000
        0.000000000000000
        0.000000000000000
        0.000000000000000
        0.000000000000000
        0.000000000000000
        0.000000000000000
        0.000000000000000
        0.000000000000000
        0.000000000000000
        0.000000000000000
        0.000000000000000
        0.000000000000000
END_DATAGRID_3D
END_BLOCK_DATAGRID_3D
