ATOMS
         C    7.558905    7.558905    7.558905
         H    8.755769    8.755769    8.755769
         H    6.362040    6.362040    8.755769
         H    8.755769    6.362040    6.362040
         H    6.362040    8.755769    6.362040
BEGIN_BLOCK_DATAGRID_3D
units: coords = b, function = sqrt(b^-3)
BEGIN_DATAGRID_3D_function
      9      9      9
0.0 0.0 0.0
   15.117809    0.000000    0.000000
    0.000000   15.117809    0.000000
    0.000000    0.000000   15.117809
        0.000000000000000
        0.000000000000000
        0.000000000000000
        0.000000000000000
        0.000000000000000
        0.000000000000000
        0.000000000000000
        0.000000000000000
        0.000000000000000
        0.000000000000000
        0.000000000000000
        0.000000000000000
        0.000000000000000
        0.000000000000000
        0.000000000000000
        0.000000000000000
        0.000000000000000
        0.000000000000000
        0.000000000000000
        0.000000000000000
        0.000000000000000
        0.000000000000000
        0.000000000000000
        0.000000000000000
        0.000000000000000
        0.000000000000000
        0.000000000000000
        0.000000000000000
        0.000000000000000
        0.000000000000000
        0.000000000000000
        0.000317081855980
        0.000223103517839
        0.000000000000000
        0.000000000000000
        0.000000000000000
        0.000000000000000
        0.000000000000000
        0.000000000000000
        0.000501329771566
        0.000633920953687
        0.000347553556766
        0.000000000000000
        0.000000000000000
        0.000000000000000
        0.000000000000000
        0.000000000000000
        0.000000000000000
        0.000499289210923
        0.000533364807039
        0.000000000000000
        0.000000000000000
        0.000000000000000
        0.000000000000000
        0.000000000000000
        0.000000000000000
        0.000000000000000
        0.000000000000000
        0.000000000000000
        0.000000000000000
        0.000000000000000
        0.000000000000000
        0.000000000000000
        0.000000000000000
        0.000000000000000
        0.000000000000000
        0.000000000000000
        0.000000000000000
        0.000000000000000
        0.000000000000000
        0.000000000000000
        0.000000000000000
        0.000000000000000
        0.000000000000000
        0.000000000000000
        0.000000000000000
        0.000000000000000
        0.000000000000000
        0.000000000000000
        0.000000000000000
        0.000000000000000
        0.000000000000000
        0.000000000000000
        0.000000000000000
        0.000000000000000
        0.000000000000000
        0.000000000000000
        0.000000000000000
        0.000000000000000
        0.000000000000000
        0.000000000000000
        0.000000000000000
        0.000000000000000
        0.000000000000000
        0.000009987005199
       -0.000018543150797
        0.000000000000000
        0.000000000000000
        0.000000000000000
        0.000000000000000
        0.000000000000000
        0.000000000000000
        0.000359263283394
        0.000396084730108
        0.000173318719006
        0.000019715149819
        0.000000000000000
        0.000000000000000
        0.000000000000000
        0.000000000000000
        0.000738799410188
        0.001570954412026
        0.001804873181460
        0.001009591521633
        0.000276379834176
        0.000037148725568
        0.000000000000000
        0.000000000000000
        0.000446934861934
        0.001592784584657
        0.003270673787585
        0.003678850560175
        0.002107623996788
        0.000652146987674
        0.000100993807842
        0.000000000000000
        0.000000000000000
        0.000472733054284
        0.001686131548424
        0.003350180100246
        0.003586147683910
        0.001997609118655
        0.000597969135168
        0.000000000000000
        0.000000000000000
        0.000000000000000
        0.000000000000000
        0.000886575551624
        0.001802259128479
        0.001869418912932
        0.000987250265084
        0.000000000000000
        0.000000000000000
        0.000000000000000
        0.000000000000000
        0.000000000000000
        0.000000000000000
        0.000536818468211
        0.000549038283509
        0.000000000000000
        0.000000000000000
        0.000000000000000
        0.000000000000000
        0.000000000000000
        0.000000000000000
        0.000000000000000
        0.000000000000000
        0.000000000000000
        0.000000000000000
        0.000000000000000
        0.000000000000000
        0.000000000000000
        0.000000000000000
        0.000000000000000
        0.000000000000000
        0.000000000000000
        0.000000000000000
        0.000000000000000
        0.000000000000000
        0.000000000000000
        0.000000000000000
        0.000000000000000
        0.000000000000000
        0.000000000000000
       -0.000110857110570
       -0.000283517380929
       -0.000336840651294
       -0.000197429816425
        0.000000000000000
        0.000000000000000
        0.000000000000000
        0.000000000000000
        0.000361334284622
        0.000585676029171
        0.000218953433948
       -0.000428716751049
       -0.000399163499263
       -0.000148681945221
        0.000000000000000
        0.000000000000000
        0.000587669703756
        0.002252007817532
        0.004884815648486
        0.005340325074764
        0.001684757252385
        0.000028224294865
       -0.000120919020537
        0.000000000000000
        0.000000000000000
        0.001370973039676
        0.005529482343038
        0.013897204599280
        0.016846969298179
        0.007235699701163
        0.001455502035241
        0.000120149959098
        0.000000000000000
        0.000000000000000
        0.001515935601935
        0.006170510087739
        0.015130847981980
        0.015864173683760
        0.007158425494806
        0.001792326087131
        0.000227662341904
        0.000000000000000
        0.000000000000000
        0.000812921408745
        0.003165598350517
        0.006684114659082
        0.006854595473445
        0.003500058246098
        0.000941028334501
        0.000000000000000
        0.000000000000000
        0.000000000000000
        0.000000000000000
        0.000869921275544
        0.001762332779069
        0.001815112205246
        0.000948922083243
        0.000000000000000
        0.000000000000000
        0.000000000000000
        0.000000000000000
        0.000000000000000
        0.000000000000000
        0.000000000000000
        0.000000000000000
        0.000000000000000
        0.000000000000000
        0.000000000000000
        0.000000000000000
        0.000000000000000
        0.000000000000000
        0.000000000000000
        0.000000000000000
       -0.000274475196711
       -0.000247273662752
        0.000000000000000
        0.000000000000000
        0.000000000000000
        0.000000000000000
        0.000000000000000
       -0.000282967608915
       -0.000862135547828
       -0.001490278902193
       -0.001341722100861
       -0.000676728178854
       -0.000205149617068
        0.000000000000000
        0.000000000000000
        0.000036988509707
       -0.000176476826238
       -0.001535637293080
       -0.004039590041736
       -0.004184527327991
       -0.001965663489844
       -0.000563067245168
        0.000000000000000
        0.000000000000000
        0.000796524189814
        0.002855557629569
        0.005574261199686
        0.002034906534914
       -0.005455831826423
       -0.002854666308429
       -0.000814129182535
       -0.000142594740815
        0.000309344079964
        0.002207313477991
        0.010892270652584
        0.035687138761643
        0.044697160982907
        0.010695568141526
       -0.000047854125117
       -0.000460757283134
       -0.000114921179854
        0.000344934585983
        0.002576056262133
        0.013204135843598
        0.044219044608583
        0.044602406454924
        0.014220042470130
        0.002142392827030
        0.000089898161065
        0.000000000000000
        0.000000000000000
        0.001482722460377
        0.006017663417967
        0.014671570085380
        0.015114816537298
        0.006634748825350
        0.001590097692221
        0.000180873129018
        0.000000000000000
        0.000000000000000
        0.000454532728346
        0.001613055512894
        0.003166163750120
        0.003322879703752
        0.001799158567428
        0.000512927762122
        0.000000000000000
        0.000000000000000
        0.000000000000000
        0.000000000000000
        0.000000000000000
        0.000462451907492
        0.000486138866956
        0.000000000000000
        0.000000000000000
        0.000000000000000
        0.000000000000000
        0.000000000000000
        0.000000000000000
        0.000000000000000
       -0.000356403712915
       -0.000540054719857
       -0.000368142433929
        0.000000000000000
        0.000000000000000
        0.000000000000000
        0.000000000000000
       -0.000188000124274
       -0.000822350884033
       -0.002145948962379
       -0.003133717214646
       -0.002448715325429
       -0.001112418913371
       -0.000290981638180
        0.000000000000000
        0.000000000000000
       -0.000360116179101
       -0.002188313875565
       -0.007890895678121
       -0.014349191374568
       -0.010190101314942
       -0.003867700740886
       -0.000961411666929
        0.000000000000000
        0.000045233198292
        0.000097878872683
       -0.001481617170844
       -0.013208226422582
       -0.038061722558765
       -0.026634606657943
       -0.008078128861100
       -0.001712836270509
       -0.000236742349968
        0.000257596564991
        0.001508396005262
        0.006990129040000
        0.018743163210466
        0.000048782776202
       -0.019094552354770
       -0.007273164809887
       -0.001606346671407
       -0.000279132923725
        0.000300343225687
        0.002113320636562
        0.010276862187882
        0.032764363628051
        0.038086237308075
        0.006710326195091
       -0.001078164462814
       -0.000640209431891
       -0.000137771606548
        0.000000000000000
        0.001289733176664
        0.005121492630308
        0.012533683757649
        0.014354867213346
        0.005458772208438
        0.000812771702461
       -0.000026963235724
        0.000000000000000
        0.000000000000000
        0.000417485988570
        0.001457507745614
        0.002914134757103
        0.003134604921467
        0.001665854015654
        0.000451078030469
        0.000047043057068
        0.000000000000000
        0.000000000000000
        0.000000000000000
        0.000000000000000
        0.000445287571418
        0.000540131167158
        0.000277639328445
        0.000000000000000
        0.000000000000000
        0.000000000000000
        0.000000000000000
        0.000000000000000
        0.000000000000000
       -0.000369244867074
       -0.000449977215029
        0.000000000000000
        0.000000000000000
        0.000000000000000
        0.000000000000000
        0.000000000000000
       -0.000239556889151
       -0.001012824481459
       -0.002381835163285
       -0.003101936361912
       -0.002187589841604
       -0.000870098916643
        0.000000000000000
        0.000000000000000
        0.000000000000000
       -0.000665090158766
       -0.003393012393573
       -0.010193517502316
       -0.014020796590615
       -0.008776363999156
       -0.003341660381482
       -0.000765547786137
        0.000000000000000
       -0.000050289525360
       -0.000777845021974
       -0.006170676114269
       -0.027753126248779
       -0.041746380272020
       -0.022637846906334
       -0.007334057194662
       -0.001645156464217
        0.000000000000000
        0.000036232344015
        0.000003886031253
       -0.002097025635545
       -0.016131001556174
       -0.044672646233595
       -0.030619848604378
       -0.009108439198797
       -0.001892288419266
       -0.000259592776662
        0.000000000000000
        0.000666146996516
        0.002129526742928
        0.002689415669476
       -0.004863274851531
       -0.011323671559964
       -0.004466873679124
       -0.001099656712037
       -0.000176767639381
        0.000000000000000
        0.000513041213550
        0.001858516011464
        0.003638118422632
        0.002953289766880
       -0.000380315866449
       -0.000768134407593
       -0.000306310302411
        0.000000000000000
        0.000000000000000
        0.000000000000000
        0.000626218551399
        0.001243478434944
        0.001270645167198
        0.000542167191153
        0.000051676511154
       -0.000023369307017
        0.000000000000000
        0.000000000000000
        0.000000000000000
        0.000000000000000
        0.000000000000000
        0.000238468304857
        0.000152322813718
        0.000000000000000
        0.000000000000000
        0.000000000000000
        0.000000000000000
        0.000000000000000
        0.000000000000000
        0.000000000000000
        0.000000000000000
        0.000000000000000
        0.000000000000000
        0.000000000000000
        0.000000000000000
        0.000000000000000
        0.000000000000000
       -0.000581776835965
       -0.001349861462631
       -0.001646335418220
       -0.001040048840315
        0.000000000000000
        0.000000000000000
        0.000000000000000
        0.000000000000000
       -0.000433561673330
       -0.001987193598271
       -0.004915363288097
       -0.006243664082664
       -0.004088225478916
       -0.001498380801321
        0.000000000000000
        0.000000000000000
        0.000000000000000
       -0.000698303300324
       -0.003545859063346
       -0.010652795398916
       -0.014770153737076
       -0.009300040668612
       -0.003543888776392
       -0.000812336999023
        0.000000000000000
        0.000000000000000
       -0.000441356042112
       -0.002596303588295
       -0.009254416519751
       -0.016841293459400
       -0.011967028807667
       -0.004510431073666
       -0.001108524861751
        0.000000000000000
        0.000000000000000
       -0.000037639980499
       -0.000569968632306
       -0.002782334518934
       -0.006426625349620
       -0.006249600446824
       -0.002762022192302
       -0.000748458527042
        0.000000000000000
        0.000000000000000
        0.000000000000000
        0.000174277792056
       -0.000007997707620
       -0.000827222049044
       -0.001374578221396
       -0.000828215248117
       -0.000254591387324
        0.000000000000000
        0.000000000000000
        0.000000000000000
        0.000000000000000
        0.000200569653882
        0.000115283336712
       -0.000083726755737
       -0.000102475845604
        0.000000000000000
        0.000000000000000
        0.000000000000000
        0.000000000000000
        0.000000000000000
        0.000000000000000
        0.000000000000000
        0.000000000000000
        0.000000000000000
        0.000000000000000
        0.000000000000000
        0.000000000000000
        0.000000000000000
        0.000000000000000
        0.000000000000000
        0.000000000000000
        0.000000000000000
        0.000000000000000
        0.000000000000000
        0.000000000000000
        0.000000000000000
        0.000000000000000
        0.000000000000000
       -0.000423609654375
       -0.000486144849916
        0.000000000000000
        0.000000000000000
        0.000000000000000
        0.000000000000000
        0.000000000000000
        0.000000000000000
       -0.000598431112045
       -0.001389787812041
       -0.001700642125905
       -0.001078377022157
        0.000000000000000
        0.000000000000000
        0.000000000000000
        0.000000000000000
       -0.000257757215088
       -0.001085900516989
       -0.002565851513411
       -0.003365204342070
       -0.002386040392832
       -0.000955140289689
        0.000000000000000
        0.000000000000000
        0.000000000000000
       -0.000217448997638
       -0.000957627723075
       -0.002502487992861
       -0.003677962853355
       -0.002890485306563
       -0.001313487870576
       -0.000344932388954
        0.000000000000000
        0.000000000000000
        0.000000000000000
       -0.000395548467704
       -0.001189611524910
       -0.002024506916455
       -0.001809146431340
       -0.000901431501877
       -0.000265667649653
        0.000000000000000
        0.000000000000000
        0.000000000000000
        0.000000000000000
       -0.000269550740082
       -0.000564318774325
       -0.000593886126037
       -0.000319620811848
        0.000000000000000
        0.000000000000000
        0.000000000000000
        0.000000000000000
        0.000000000000000
        0.000000000000000
       -0.000072758617731
       -0.000096801088400
        0.000000000000000
        0.000000000000000
        0.000000000000000
        0.000000000000000
        0.000000000000000
        0.000000000000000
        0.000000000000000
        0.000000000000000
        0.000000000000000
        0.000000000000000
        0.000000000000000
        0.000000000000000
        0.000000000000000
        0.000000000000000
        0.000000000000000
        0.000000000000000
        0.000000000000000
        0.000000000000000
        0.000000000000000
        0.000000000000000
        0.000000000000000
        0.000000000000000
        0.000000000000000
        0.000000000000000
        0.000000000000000
        0.000000000000000
        0.000000000000000
        0.000000000000000
        0.000000000000000
        0.000000000000000
        0.000000000000000
        0.000000000000000
        0.000000000000000
        0.000000000000000
        0.000000000000000
        0.000000000000000
        0.000000000000000
        0.000000000000000
        0.000000000000000
        0.000000000000000
        0.000000000000000
        0.000000000000000
       -0.000406082170506
       -0.000497203155112
        0.000000000000000
        0.000000000000000
        0.000000000000000
        0.000000000000000
        0.000000000000000
        0.000000000000000
        0.000000000000000
       -0.000412445913063
       -0.000633844506386
       -0.000438056662249
        0.000000000000000
        0.000000000000000
        0.000000000000000
        0.000000000000000
        0.000000000000000
        0.000000000000000
        0.000000000000000
       -0.000353088747834
       -0.000318054366873
        0.000000000000000
        0.000000000000000
        0.000000000000000
        0.000000000000000
        0.000000000000000
        0.000000000000000
        0.000000000000000
        0.000000000000000
        0.000000000000000
        0.000000000000000
        0.000000000000000
        0.000000000000000
        0.000000000000000
        0.000000000000000
        0.000000000000000
        0.000000000000000
        0.000000000000000
        0.000000000000000
        0.000000000000000
        0.000000000000000
        0.000000000000000
        0.000000000000000
        0.000000000000000
        0.000000000000000
        0.000000000000000
        0.000000000000000
        0.000000000000000
        0.000000000000000
        0.000000000000000
        0.000000000000000
END_DATAGRID_3D
END_BLOCK_DATAGRID_3D
