ATOMS
         C    7.558905    7.558905    7.558905
         H    8.755769    8.755769    8.755769
         H    6.362040    6.362040    8.755769
         H    8.755769    6.362040    6.362040
         H    6.362040    8.755769    6.362040
BEGIN_BLOCK_DATAGRID_3D
units: coords = b, function = sqrt(b^-3)
BEGIN_DATAGRID_3D_function
      9      9      9
0.0 0.0 0.0
   15.117809    0.000000    0.000000
    0.000000   15.117809    0.000000
    0.000000    0.000000   15.117809
        0.000000000000000
        0.000000000000000
        0.000000000000000
        0.000000000000000
        0.000000000000000
        0.000000000000000
        0.000000000000000
        0.000000000000000
        0.000000000000000
        0.000000000000000
        0.000000000000000
        0.000000000000000
        0.000000000000000
        0.000000000000000
        0.000000000000000
        0.000000000000000
        0.000000000000000
        0.000000000000000
        0.000000000000000
        0.000000000000000
        0.000000000000000
        0.000000000000000
        0.000000000000000
        0.000000000000000
        0.000000000000000
        0.000000000000000
        0.000000000000000
        0.000000000000000
        0.000000000000000
        0.000000000000000
        0.000000000000000
        0.000770248733831
        0.000536801872652
        0.000000000000000
        0.000000000000000
        0.000000000000000
        0.000000000000000
        0.000000000000000
        0.000000000000000
        0.001230672186884
        0.001540581806092
        0.000836192606445
        0.000000000000000
        0.000000000000000
        0.000000000000000
        0.000000000000000
        0.000000000000000
        0.000000000000000
        0.001225575573282
        0.001296616059498
        0.000000000000000
        0.000000000000000
        0.000000000000000
        0.000000000000000
        0.000000000000000
        0.000000000000000
        0.000000000000000
        0.000000000000000
        0.000000000000000
        0.000000000000000
        0.000000000000000
        0.000000000000000
        0.000000000000000
        0.000000000000000
        0.000000000000000
        0.000000000000000
        0.000000000000000
        0.000000000000000
        0.000000000000000
        0.000000000000000
        0.000000000000000
        0.000000000000000
        0.000000000000000
        0.000000000000000
        0.000000000000000
        0.000000000000000
        0.000000000000000
        0.000000000000000
        0.000000000000000
        0.000000000000000
        0.000000000000000
        0.000000000000000
        0.000000000000000
        0.000000000000000
        0.000000000000000
        0.000000000000000
        0.000000000000000
        0.000000000000000
        0.000000000000000
        0.000000000000000
        0.000000000000000
        0.000000000000000
        0.000000000000000
        0.000000000000000
        0.000024178973414
       -0.000044695457698
        0.000000000000000
        0.000000000000000
        0.000000000000000
        0.000000000000000
        0.000000000000000
        0.000000000000000
        0.000881875489754
        0.000962473926770
        0.000416664382935
        0.000046813827049
        0.000000000000000
        0.000000000000000
        0.000000000000000
        0.000000000000000
        0.001832892965418
        0.003857537056113
        0.004385949030523
        0.002428039146160
        0.000657924753913
        0.000087514095355
        0.000000000000000
        0.000000000000000
        0.001120734277159
        0.003952350249436
        0.008031251440697
        0.008939855700946
        0.005068941233664
        0.001552616558122
        0.000238077868786
        0.000000000000000
        0.000000000000000
        0.001185394199946
        0.004184088295464
        0.008226066147362
        0.008714243643838
        0.004804430612773
        0.001423895175594
        0.000000000000000
        0.000000000000000
        0.000000000000000
        0.000000000000000
        0.002199475924616
        0.004425348666442
        0.004542492880788
        0.002374912651258
        0.000000000000000
        0.000000000000000
        0.000000000000000
        0.000000000000000
        0.000000000000000
        0.000000000000000
        0.001317603752999
        0.001334633172531
        0.000000000000000
        0.000000000000000
        0.000000000000000
        0.000000000000000
        0.000000000000000
        0.000000000000000
        0.000000000000000
        0.000000000000000
        0.000000000000000
        0.000000000000000
        0.000000000000000
        0.000000000000000
        0.000000000000000
        0.000000000000000
        0.000000000000000
        0.000000000000000
        0.000000000000000
        0.000000000000000
        0.000000000000000
        0.000000000000000
        0.000000000000000
        0.000000000000000
        0.000000000000000
        0.000000000000000
        0.000000000000000
       -0.000272400608028
       -0.000689403065652
       -0.000810582625700
       -0.000470387856526
        0.000000000000000
        0.000000000000000
        0.000000000000000
        0.000000000000000
        0.000896230482434
        0.001437562853076
        0.000530785764543
       -0.001032610533806
       -0.000950981089149
       -0.000350697989271
        0.000000000000000
        0.000000000000000
        0.001473545006095
        0.005588358495756
        0.011993802984783
        0.012974757625220
        0.004048617867249
        0.000066141268413
       -0.000285314997558
        0.000000000000000
        0.000000000000000
        0.003438089729427
        0.013722553788721
        0.034123008120083
        0.040936534317323
        0.017399267428971
        0.003463921784517
        0.000283013916738
        0.000000000000000
        0.000000000000000
        0.003802023112804
        0.015313137560374
        0.037151320258197
        0.038547517923835
        0.017214425868589
        0.004266458416126
        0.000536739540305
        0.000000000000000
        0.000000000000000
        0.002038461267977
        0.007855842516589
        0.016411889362593
        0.016655689808695
        0.008417254058806
        0.002240686740937
        0.000000000000000
        0.000000000000000
        0.000000000000000
        0.000000000000000
        0.002158151135232
        0.004327290740946
        0.004410506711817
        0.002282685154428
        0.000000000000000
        0.000000000000000
        0.000000000000000
        0.000000000000000
        0.000000000000000
        0.000000000000000
        0.000000000000000
        0.000000000000000
        0.000000000000000
        0.000000000000000
        0.000000000000000
        0.000000000000000
        0.000000000000000
        0.000000000000000
        0.000000000000000
        0.000000000000000
       -0.000666934024125
       -0.000595111883113
        0.000000000000000
        0.000000000000000
        0.000000000000000
        0.000000000000000
        0.000000000000000
       -0.000702308888572
       -0.002117691055758
       -0.003622725058980
       -0.003228264957691
       -0.001611852194070
       -0.000483787427423
        0.000000000000000
        0.000000000000000
        0.000092619249888
       -0.000438807942724
       -0.003773709114684
       -0.009821715100355
       -0.010069575980891
       -0.004681765091353
       -0.001327844936906
        0.000000000000000
        0.000000000000000
        0.001997335642763
        0.007085078540577
        0.013678661791309
        0.004929761070436
       -0.013141342789378
       -0.006802369393546
       -0.001919293411691
       -0.000333166472891
        0.000783250038719
        0.005537999872484
        0.027026035420535
        0.087595496079144
        0.108596523751901
        0.025715766188258
       -0.000121687290663
       -0.001086380152046
       -0.000268399947373
        0.000873189433566
        0.006465151803787
        0.032756059749550
        0.108557699609166
        0.108381501196967
        0.034198341509536
        0.005095802568321
        0.000211978857282
        0.000000000000000
        0.000000000000000
        0.003718724215027
        0.014933776400957
        0.036023266336894
        0.036726063230227
        0.015954590223582
        0.003784883449214
        0.000426402571492
        0.000000000000000
        0.000000000000000
        0.001139746794198
        0.004002731472191
        0.007774123349787
        0.008074344779417
        0.004327005555802
        0.001221330709951
        0.000000000000000
        0.000000000000000
        0.000000000000000
        0.000000000000000
        0.000000000000000
        0.001135134843788
        0.001181784115470
        0.000000000000000
        0.000000000000000
        0.000000000000000
        0.000000000000000
        0.000000000000000
        0.000000000000000
        0.000000000000000
       -0.000875068848236
       -0.001312609734047
       -0.000885945617829
        0.000000000000000
        0.000000000000000
        0.000000000000000
        0.000000000000000
       -0.000471519809435
       -0.002040979268831
       -0.005270587197501
       -0.007616954560700
       -0.005891066376670
       -0.002649374069523
       -0.000686218158427
        0.000000000000000
        0.000000000000000
       -0.000903362796418
       -0.005432564493182
       -0.019381800208571
       -0.034878831627518
       -0.024516316813554
       -0.009210692386915
       -0.002267099718485
        0.000000000000000
        0.000114691761555
        0.000244835323789
       -0.003682300182544
       -0.032439356644922
       -0.092526637402070
       -0.064104342132575
       -0.019240798807614
       -0.004037713672877
       -0.000553355413691
        0.000652329368501
        0.003785407825039
        0.017333778364945
        0.045983083456149
        0.000000000000001
       -0.045983083456150
       -0.017333778364946
       -0.003785407825040
       -0.000652329368501
        0.000760481890425
        0.005302186185049
        0.025498404552840
        0.080418804322890
        0.092526637402067
        0.016124894454604
       -0.002575305562684
       -0.001509307835961
       -0.000321818238288
        0.000000000000000
        0.003234333801656
        0.012709842929891
        0.030773922558781
        0.034878831627517
        0.013124194463343
        0.001933413950205
       -0.000063871286753
        0.000000000000000
        0.000000000000000
        0.001046882354657
        0.003616608152694
        0.007155538888842
        0.007616954560700
        0.004006114685328
        0.001073745185660
        0.000110855613205
        0.000000000000000
        0.000000000000000
        0.000000000000000
        0.000000000000000
        0.001093072094563
        0.001312609734047
        0.000667942371502
        0.000000000000000
        0.000000000000000
        0.000000000000000
        0.000000000000000
        0.000000000000000
        0.000000000000000
       -0.000906472636094
       -0.001094080441940
        0.000000000000000
        0.000000000000000
        0.000000000000000
        0.000000000000000
        0.000000000000000
       -0.000600758561862
       -0.002513649896028
       -0.005849268127891
       -0.007538928515191
       -0.005262496762395
       -0.002072546558065
        0.000000000000000
        0.000000000000000
        0.000000000000000
       -0.001668468070052
       -0.008421720237031
       -0.025033681510389
       -0.034076401921770
       -0.021112347150311
       -0.007957713783447
       -0.001805426095572
        0.000000000000000
       -0.000126945020045
       -0.001953878367614
       -0.015310748170896
       -0.068155501204089
       -0.101473459847933
       -0.054470926324892
       -0.017463458351110
       -0.003879720406016
        0.000000000000000
        0.000091923613261
        0.000009021636354
       -0.005209931050238
       -0.039616048401177
       -0.108596523751902
       -0.073695213866228
       -0.021694417079635
       -0.004460641356792
       -0.000606773704606
        0.000000000000000
        0.001670405905971
        0.005282577242211
        0.006593923024045
       -0.011837802419472
       -0.027260855615702
       -0.010642942185108
       -0.002591980024481
       -0.000413077940630
        0.000000000000000
        0.001286404274192
        0.004611638276957
        0.008931466041411
        0.007172053791896
       -0.000920008845615
       -0.001830291072574
       -0.000722411208069
        0.000000000000000
        0.000000000000000
        0.000000000000000
        0.001553524736686
        0.003053182262350
        0.003087308794753
        0.001303409735796
        0.000122770617907
       -0.000055200804913
        0.000000000000000
        0.000000000000000
        0.000000000000000
        0.000000000000000
        0.000000000000000
        0.000579230350595
        0.000366449675419
        0.000000000000000
        0.000000000000000
        0.000000000000000
        0.000000000000000
        0.000000000000000
        0.000000000000000
        0.000000000000000
        0.000000000000000
        0.000000000000000
        0.000000000000000
        0.000000000000000
        0.000000000000000
        0.000000000000000
        0.000000000000000
       -0.001443500637982
       -0.003314919464398
       -0.004000950272702
       -0.002502454838609
        0.000000000000000
        0.000000000000000
        0.000000000000000
        0.000000000000000
       -0.001087313611046
       -0.004932113392474
       -0.012070874794577
       -0.015174042644639
       -0.009834084579247
       -0.003568953258996
        0.000000000000000
        0.000000000000000
        0.000000000000000
       -0.001751766967829
       -0.008801081396448
       -0.026161735431691
       -0.035897856615377
       -0.022372182795317
       -0.008439288750359
       -0.001915763064384
        0.000000000000000
        0.000000000000000
       -0.001107118724189
       -0.006445275352012
       -0.022730885769873
       -0.040936534317323
       -0.028791389779183
       -0.010741200221227
       -0.002613984921975
        0.000000000000000
        0.000000000000000
       -0.000094521482015
       -0.001415528161524
       -0.006836046058056
       -0.015624418933678
       -0.015038202693755
       -0.006578197432339
       -0.001764941147417
        0.000000000000000
        0.000000000000000
        0.000000000000000
        0.000432036035625
       -0.000020732332635
       -0.002012432928599
       -0.003308404034210
       -0.001972748034966
       -0.000600449667660
        0.000000000000000
        0.000000000000000
        0.000000000000000
        0.000000000000000
        0.000492170292209
        0.000279846626537
       -0.000201788650848
       -0.000244262640725
        0.000000000000000
        0.000000000000000
        0.000000000000000
        0.000000000000000
        0.000000000000000
        0.000000000000000
        0.000000000000000
        0.000000000000000
        0.000000000000000
        0.000000000000000
        0.000000000000000
        0.000000000000000
        0.000000000000000
        0.000000000000000
        0.000000000000000
        0.000000000000000
        0.000000000000000
        0.000000000000000
        0.000000000000000
        0.000000000000000
        0.000000000000000
        0.000000000000000
        0.000000000000000
       -0.001039850531587
       -0.001181916941275
        0.000000000000000
        0.000000000000000
        0.000000000000000
        0.000000000000000
        0.000000000000000
        0.000000000000000
       -0.001484825427366
       -0.003412977389894
       -0.004132936441673
       -0.002594682335438
        0.000000000000000
        0.000000000000000
        0.000000000000000
        0.000000000000000
       -0.000646405967610
       -0.002695006719301
       -0.006301210925466
       -0.008178827379612
       -0.005739921819366
       -0.002275111023708
        0.000000000000000
        0.000000000000000
        0.000000000000000
       -0.000545371731937
       -0.002376721365573
       -0.006146299749356
       -0.008939855700946
       -0.006953892925006
       -0.003128245441984
       -0.000813440414008
        0.000000000000000
        0.000000000000000
        0.000000000000000
       -0.000981677117304
       -0.002922045849521
       -0.004921365294750
       -0.004352894368056
       -0.002147006330076
       -0.000626502327691
        0.000000000000000
        0.000000000000000
        0.000000000000000
        0.000000000000000
       -0.000662105805574
       -0.001372030365885
       -0.001429035659484
       -0.000761464324299
        0.000000000000000
        0.000000000000000
        0.000000000000000
        0.000000000000000
        0.000000000000000
        0.000000000000000
       -0.000176895204670
       -0.000233057763714
        0.000000000000000
        0.000000000000000
        0.000000000000000
        0.000000000000000
        0.000000000000000
        0.000000000000000
        0.000000000000000
        0.000000000000000
        0.000000000000000
        0.000000000000000
        0.000000000000000
        0.000000000000000
        0.000000000000000
        0.000000000000000
        0.000000000000000
        0.000000000000000
        0.000000000000000
        0.000000000000000
        0.000000000000000
        0.000000000000000
        0.000000000000000
        0.000000000000000
        0.000000000000000
        0.000000000000000
        0.000000000000000
        0.000000000000000
        0.000000000000000
        0.000000000000000
        0.000000000000000
        0.000000000000000
        0.000000000000000
        0.000000000000000
        0.000000000000000
        0.000000000000000
        0.000000000000000
        0.000000000000000
        0.000000000000000
        0.000000000000000
        0.000000000000000
        0.000000000000000
        0.000000000000000
        0.000000000000000
       -0.000996913365589
       -0.001208912385968
        0.000000000000000
        0.000000000000000
        0.000000000000000
        0.000000000000000
        0.000000000000000
        0.000000000000000
        0.000000000000000
       -0.001012668940557
       -0.001540581806092
       -0.001054195852772
        0.000000000000000
        0.000000000000000
        0.000000000000000
        0.000000000000000
        0.000000000000000
        0.000000000000000
        0.000000000000000
       -0.000857952407361
       -0.000765464080346
        0.000000000000000
        0.000000000000000
        0.000000000000000
        0.000000000000000
        0.000000000000000
        0.000000000000000
        0.000000000000000
        0.000000000000000
        0.000000000000000
        0.000000000000000
        0.000000000000000
        0.000000000000000
        0.000000000000000
        0.000000000000000
        0.000000000000000
        0.000000000000000
        0.000000000000000
        0.000000000000000
        0.000000000000000
        0.000000000000000
        0.000000000000000
        0.000000000000000
        0.000000000000000
        0.000000000000000
        0.000000000000000
        0.000000000000000
        0.000000000000000
        0.000000000000000
        0.000000000000000
        0.000000000000000
END_DATAGRID_3D
END_BLOCK_DATAGRID_3D
